 vasp.5.4.1 24Jun15 (build Nov 23 2015 09:58:10) complex                        
  
 executed on             LinuxIFC date 2020.06.19  01:28:57
 running on   24 total cores
 distrk:  each k-point on   24 cores,    1 groups
 distr:  one band on NCORES_PER_BAND=   4 cores,    6 groups


--------------------------------------------------------------------------------------------------------


 INCAR:
 POTCAR:    PAW_PBE Fe 06Sep2000                  
 POTCAR:    PAW_PBE Si 05Jan2001                  
 POTCAR:    PAW_PBE Fe 06Sep2000                  
   VRHFIN =Fe:  d7 s1                                                           
   LEXCH  = PE                                                                  
   EATOM  =   594.3153 eV,   43.6809 Ry                                         
                                                                                
   TITEL  = PAW_PBE Fe 06Sep2000                                                
   LULTRA =        F    use ultrasoft PP ?                                      
   IUNSCR =        1    unscreen: 0-lin 1-nonlin 2-no                           
   RPACOR =    2.000    partial core radius                                     
   POMASS =   55.847; ZVAL   =    8.000    mass and valenz                      
   RCORE  =    2.300    outmost cutoff radius                                   
   RWIGS  =    2.460; RWIGS  =    1.302    wigner-seitz radius (au A)           
   ENMAX  =  267.882; ENMIN  =  200.911 eV                                      
   RCLOC  =    1.701    cutoff for local pot                                    
   LCOR   =        T    correct aug charges                                     
   LPAW   =        T    paw PP                                                  
   EAUG   =  511.368                                                            
   DEXC   =    0.000                                                            
   RMAX   =    2.356    core radius for proj-oper                               
   RAUG   =    1.300    factor for augmentation sphere                          
   RDEP   =    2.442    radius for radial grids                                 
   RDEPT  =    1.890    core radius for aug-charge                              
                                                                                
   Atomic configuration                                                         
    9 entries                                                                   
     n  l   j            E        occ.                                          
     1  0  0.50     -6993.8440   2.0000                                         
     2  0  0.50      -814.6047   2.0000                                         
     2  1  1.50      -693.3689   6.0000                                         
     3  0  0.50       -89.4732   2.0000                                         
     3  1  1.50       -55.6373   6.0000                                         
     3  2  2.50        -3.8151   7.0000                                         
     4  0  0.50        -4.2551   1.0000                                         
     4  1  1.50        -3.4015   0.0000                                         
     4  3  2.50        -1.3606   0.0000                                         
   Description                                                                  
     l       E           TYP  RCUT    TYP  RCUT                                 
     2     -3.8151135     23  2.300                                             
     2     -5.1756961     23  2.300                                             
     0     -4.2550963     23  2.300                                             
     0      7.2035603     23  2.300                                             
     1     -2.7211652     23  2.300                                             
     1     18.4316424     23  2.300                                             
  local pseudopotential read in
  partial core-charges read in
  partial kinetic energy density read in
  atomic valenz-charges read in
  non local Contribution for L=           2  read in
    real space projection operators read in
  non local Contribution for L=           2  read in
    real space projection operators read in
  non local Contribution for L=           0  read in
    real space projection operators read in
  non local Contribution for L=           0  read in
    real space projection operators read in
  non local Contribution for L=           1  read in
    real space projection operators read in
  non local Contribution for L=           1  read in
    real space projection operators read in
    PAW grid and wavefunctions read in
 
   number of l-projection  operators is LMAX  =           6
   number of lm-projection operators is LMMAX =          18
 
 POTCAR:    PAW_PBE Si 05Jan2001                  
   VRHFIN =Si: s2p2                                                             
   LEXCH  = PE                                                                  
   EATOM  =   103.0669 eV,    7.5752 Ry                                         
                                                                                
   TITEL  = PAW_PBE Si 05Jan2001                                                
   LULTRA =        F    use ultrasoft PP ?                                      
   IUNSCR =        1    unscreen: 0-lin 1-nonlin 2-no                           
   RPACOR =    1.500    partial core radius                                     
   POMASS =   28.085; ZVAL   =    4.000    mass and valenz                      
   RCORE  =    1.900    outmost cutoff radius                                   
   RWIGS  =    2.480; RWIGS  =    1.312    wigner-seitz radius (au A)           
   ENMAX  =  245.345; ENMIN  =  184.009 eV                                      
   ICORE  =        2    local potential                                         
   LCOR   =        T    correct aug charges                                     
   LPAW   =        T    paw PP                                                  
   EAUG   =  322.069                                                            
   DEXC   =    0.000                                                            
   RMAX   =    1.950    core radius for proj-oper                               
   RAUG   =    1.300    factor for augmentation sphere                          
   RDEP   =    1.993    radius for radial grids                                 
   RDEPT  =    1.837    core radius for aug-charge                              
                                                                                
   Atomic configuration                                                         
    6 entries                                                                   
     n  l   j            E        occ.                                          
     1  0  0.50     -1785.8828   2.0000                                         
     2  0  0.50      -139.4969   2.0000                                         
     2  1  1.50       -95.5546   6.0000                                         
     3  0  0.50       -10.8127   2.0000                                         
     3  1  0.50        -4.0811   2.0000                                         
     3  2  1.50        -4.0817   0.0000                                         
   Description                                                                  
     l       E           TYP  RCUT    TYP  RCUT                                 
     0    -10.8127223     23  1.900                                             
     0     -7.6451159     23  1.900                                             
     1     -4.0811372     23  1.900                                             
     1      2.4879257     23  1.900                                             
     2     -4.0817478      7  1.900                                             
  local pseudopotential read in
  partial core-charges read in
  partial kinetic energy density read in
  atomic valenz-charges read in
  non local Contribution for L=           0  read in
    real space projection operators read in
  non local Contribution for L=           0  read in
    real space projection operators read in
  non local Contribution for L=           1  read in
    real space projection operators read in
  non local Contribution for L=           1  read in
    real space projection operators read in
    PAW grid and wavefunctions read in
 
   number of l-projection  operators is LMAX  =           4
   number of lm-projection operators is LMMAX =           8
 
  PAW_PBE Fe 06Sep2000                  :
 energy of atom  1       EATOM= -594.3153
 kinetic energy error for atom=    0.0026 (will be added to EATOM!!)
  PAW_PBE Si 05Jan2001                  :
 energy of atom  2       EATOM= -103.0669
 kinetic energy error for atom=    0.0005 (will be added to EATOM!!)
 
 
 POSCAR: Fe10 Si6                                
  positions in direct lattice
  velocities in cartesian coordinates
 exchange correlation table for  LEXCH =        8
   RHO(1)=    0.500       N(1)  =     2000
   RHO(2)=  100.500       N(2)  =     4000
 


--------------------------------------------------------------------------------------------------------


 ion  position               nearest neighbor table
   1  0.000  0.233  0.750-  14 2.42  15 2.42  12 2.52  11 2.66  11 2.66  10 2.79   3 2.79   9 2.88
                             9 2.88   4 2.88   4 2.88   8 2.97   7 2.97   6 2.97   5 2.97
   2  0.000  0.767  0.250-  13 2.42  16 2.42  11 2.52  12 2.66  12 2.66   9 2.79   4 2.79  10 2.88
                            10 2.88   3 2.88   3 2.88   6 2.97   5 2.97   8 2.97   7 2.97
   3  0.233  0.000  0.750-  12 2.42  14 2.42  15 2.52  13 2.66  13 2.66  10 2.79   1 2.79   2 2.88
                             2 2.88   4 2.88   4 2.88   5 2.97   6 2.97   7 2.97   8 2.97
   4  0.233  0.233  0.250-  11 2.42  13 2.42  16 2.52  14 2.66  14 2.66   2 2.79   9 2.79   1 2.88
                             1 2.88   3 2.88   3 2.88   5 2.97   6 2.97   7 2.97   8 2.97
   5  0.333  0.667  0.000-   6 2.39   6 2.39  13 2.42  12 2.42  15 2.42  11 2.42  16 2.42  14 2.42
                             3 2.97   2 2.97   1 2.97   9 2.97   4 2.97  10 2.97
   6  0.333  0.667  0.500-   5 2.39   5 2.39  13 2.42  12 2.42  15 2.42  11 2.42  16 2.42  14 2.42
                             3 2.97   2 2.97   1 2.97   9 2.97   4 2.97  10 2.97
   7  0.667  0.333  0.000-   8 2.39   8 2.39  15 2.42  11 2.42  12 2.42  13 2.42  16 2.42  14 2.42
                             1 2.97   9 2.97   3 2.97   2 2.97   4 2.97  10 2.97
   8  0.667  0.333  0.500-   7 2.39   7 2.39  15 2.42  11 2.42  12 2.42  13 2.42  16 2.42  14 2.42
                             1 2.97   9 2.97   3 2.97   2 2.97   4 2.97  10 2.97
   9  0.767  0.000  0.250-  11 2.42  16 2.42  13 2.52  15 2.66  15 2.66   2 2.79   4 2.79  10 2.88
                            10 2.88   1 2.88   1 2.88   7 2.97   8 2.97   5 2.97   6 2.97
  10  0.767  0.767  0.750-  12 2.42  15 2.42  14 2.52  16 2.66  16 2.66   1 2.79   3 2.79   9 2.88
                             2 2.88   9 2.88   2 2.88   5 2.97   6 2.97   7 2.97   8 2.97
  11  0.000  0.402  0.250-   9 2.42   4 2.42   8 2.42   7 2.42   6 2.42   5 2.42   2 2.52   1 2.66
                             1 2.66  12 2.74  12 2.74
  12  0.000  0.598  0.750-  10 2.42   3 2.42   6 2.42   5 2.42   8 2.42   7 2.42   1 2.52   2 2.66
                             2 2.66  11 2.74  11 2.74
  13  0.402  0.000  0.250-   2 2.42   4 2.42   5 2.42   6 2.42   7 2.42   8 2.42   9 2.52   3 2.66
                             3 2.66  15 2.74  15 2.74
  14  0.402  0.402  0.750-   1 2.42   3 2.42   5 2.42   6 2.42   7 2.42   8 2.42  10 2.52   4 2.66
                             4 2.66  16 2.74  16 2.74
  15  0.598  0.000  0.750-  10 2.42   1 2.42   8 2.42   7 2.42   6 2.42   5 2.42   3 2.52   9 2.66
                             9 2.66  13 2.74  13 2.74
  16  0.598  0.598  0.250-   2 2.42   9 2.42   6 2.42   7 2.42   8 2.42   5 2.42   4 2.52  10 2.66
                            10 2.66  14 2.74  14 2.74
 
  LATTYP: Found a hexagonal cell.
 ALAT       =     6.9104210358
 C/A-ratio  =     0.6905342737
  
  Lattice vectors:
  
 A1 = (   6.9104210358,   0.0000000000,   0.0000000000)
 A2 = (  -3.4552105179,   5.9846001679,   0.0000000000)
 A3 = (   0.0000000000,   0.0000000000,   4.7718825707)


Analysis of symmetry for initial positions (statically):
=====================================================================
 Subroutine PRICEL returns:
 Original cell was already a primitive cell.
 

 Routine SETGRP: Setting up the symmetry group for a 
 hexagonal supercell.


 Subroutine GETGRP returns: Found 24 space group operations
 (whereof 12 operations were pure point group operations)
 out of a pool of 24 trial point group operations.


The static configuration has the point symmetry D_3d.
 The point group associated with its full space group is D_6h.


Analysis of symmetry for dynamics (positions and initial velocities):
=====================================================================
 Subroutine PRICEL returns:
 Original cell was already a primitive cell.
 

 Routine SETGRP: Setting up the symmetry group for a 
 hexagonal supercell.


 Subroutine GETGRP returns: Found 24 space group operations
 (whereof 12 operations were pure point group operations)
 out of a pool of 24 trial point group operations.


The dynamic configuration has the point symmetry D_3d.
 The point group associated with its full space group is D_6h.


Analysis of magnetic symmetry:
=====================================================================
 Subroutine PRICEL returns:
 Original cell was already a primitive cell.
 

 Subroutine MAGSYM returns: Found 24 space group operations
 (whereof 12 operations were pure point group operations)
 out of a pool of 24 trial space group operations
 (whereof 12 operations were pure point group operations)
 and found also     1 'primitive' translations


The magnetic configuration has the point symmetry D_3d.
 The point group associated with its full space group is D_6h.
 
 
 KPOINTS: K-Mesh                                  

Automatic generation of k-mesh.
Space group operators:
 irot       det(A)        alpha          n_x          n_y          n_z        tau_x        tau_y        tau_z
    1     1.000000     0.000000     1.000000     0.000000     0.000000     0.000000     0.000000     0.000000
    2    -1.000000     0.000000     1.000000     0.000000     0.000000     0.000000     0.000000     0.000000
    3     1.000000   120.000000     0.000000     0.000000    -1.000000     0.000000     0.000000     0.000000
    4    -1.000000   120.000000     0.000000     0.000000    -1.000000     0.000000     0.000000     0.000000
    5     1.000000   120.000000     0.000000     0.000000     1.000000     0.000000     0.000000     0.000000
    6    -1.000000   120.000000     0.000000     0.000000     1.000000     0.000000     0.000000     0.000000
    7     1.000000   180.000000     0.866025    -0.500000     0.000000     0.000000     0.000000     0.000000
    8    -1.000000   180.000000     0.866025    -0.500000     0.000000     0.000000     0.000000     0.000000
    9     1.000000   180.000000     0.000000     1.000000     0.000000     0.000000     0.000000     0.000000
   10    -1.000000   180.000000     0.000000     1.000000     0.000000     0.000000     0.000000     0.000000
   11     1.000000   180.000000     0.866025     0.500000     0.000000     0.000000     0.000000     0.000000
   12    -1.000000   180.000000     0.866025     0.500000     0.000000     0.000000     0.000000     0.000000
   13     1.000000    60.000000     0.000000     0.000000    -1.000000     0.000000     0.000000     0.500000
   14    -1.000000    60.000000     0.000000     0.000000    -1.000000     0.000000     0.000000     0.500000
   15     1.000000   180.000000     0.000000     0.000000     1.000000     0.000000     0.000000     0.500000
   16    -1.000000   180.000000     0.000000     0.000000     1.000000     0.000000     0.000000     0.500000
   17     1.000000    60.000000     0.000000     0.000000     1.000000     0.000000     0.000000     0.500000
   18    -1.000000    60.000000     0.000000     0.000000     1.000000     0.000000     0.000000     0.500000
   19     1.000000   180.000000     1.000000     0.000000     0.000000     0.000000     0.000000     0.500000
   20    -1.000000   180.000000     1.000000     0.000000     0.000000     0.000000     0.000000     0.500000
   21     1.000000   180.000000     0.500000    -0.866025     0.000000     0.000000     0.000000     0.500000
   22    -1.000000   180.000000     0.500000    -0.866025     0.000000     0.000000     0.000000     0.500000
   23     1.000000   180.000000    -0.500000    -0.866025     0.000000     0.000000     0.000000     0.500000
   24    -1.000000   180.000000    -0.500000    -0.866025     0.000000     0.000000     0.000000     0.500000
 
 Subroutine IBZKPT returns following result:
 ===========================================
 
 Found     60 irreducible k-points:
 
 Following reciprocal coordinates:
            Coordinates               Weight
  0.000000  0.000000  0.000000      1.000000
  0.125000  0.000000  0.000000      6.000000
  0.250000  0.000000  0.000000      6.000000
  0.375000  0.000000  0.000000      6.000000
  0.500000  0.000000  0.000000      3.000000
  0.125000  0.125000  0.000000      6.000000
  0.250000  0.125000  0.000000     12.000000
  0.375000  0.125000  0.000000     12.000000
  0.250000  0.250000  0.000000      6.000000
  0.375000  0.250000  0.000000      6.000000
  0.000000  0.000000  0.100000      2.000000
  0.125000  0.000000  0.100000     12.000000
  0.250000  0.000000  0.100000     12.000000
  0.375000  0.000000  0.100000     12.000000
  0.500000  0.000000  0.100000      6.000000
  0.125000  0.125000  0.100000     12.000000
  0.250000  0.125000  0.100000     24.000000
  0.375000  0.125000  0.100000     24.000000
  0.250000  0.250000  0.100000     12.000000
  0.375000  0.250000  0.100000     12.000000
  0.000000  0.000000  0.200000      2.000000
  0.125000  0.000000  0.200000     12.000000
  0.250000  0.000000  0.200000     12.000000
  0.375000  0.000000  0.200000     12.000000
  0.500000  0.000000  0.200000      6.000000
  0.125000  0.125000  0.200000     12.000000
  0.250000  0.125000  0.200000     24.000000
  0.375000  0.125000  0.200000     24.000000
  0.250000  0.250000  0.200000     12.000000
  0.375000  0.250000  0.200000     12.000000
  0.000000  0.000000  0.300000      2.000000
  0.125000  0.000000  0.300000     12.000000
  0.250000  0.000000  0.300000     12.000000
  0.375000  0.000000  0.300000     12.000000
  0.500000  0.000000  0.300000      6.000000
  0.125000  0.125000  0.300000     12.000000
  0.250000  0.125000  0.300000     24.000000
  0.375000  0.125000  0.300000     24.000000
  0.250000  0.250000  0.300000     12.000000
  0.375000  0.250000  0.300000     12.000000
  0.000000  0.000000  0.400000      2.000000
  0.125000  0.000000  0.400000     12.000000
  0.250000  0.000000  0.400000     12.000000
  0.375000  0.000000  0.400000     12.000000
  0.500000  0.000000  0.400000      6.000000
  0.125000  0.125000  0.400000     12.000000
  0.250000  0.125000  0.400000     24.000000
  0.375000  0.125000  0.400000     24.000000
  0.250000  0.250000  0.400000     12.000000
  0.375000  0.250000  0.400000     12.000000
  0.000000  0.000000  0.500000      1.000000
  0.125000  0.000000  0.500000      6.000000
  0.250000  0.000000  0.500000      6.000000
  0.375000  0.000000  0.500000      6.000000
  0.500000  0.000000  0.500000      3.000000
  0.125000  0.125000  0.500000      6.000000
  0.250000  0.125000  0.500000     12.000000
  0.375000  0.125000  0.500000     12.000000
  0.250000  0.250000  0.500000      6.000000
  0.375000  0.250000  0.500000      6.000000
 
 Following cartesian coordinates:
            Coordinates               Weight
  0.000000  0.000000  0.000000      1.000000
  0.018089  0.010443  0.000000      6.000000
  0.036177  0.020887  0.000000      6.000000
  0.054266  0.031330  0.000000      6.000000
  0.072354  0.041774  0.000000      3.000000
  0.018089  0.031330  0.000000      6.000000
  0.036177  0.041774  0.000000     12.000000
  0.054266  0.052217  0.000000     12.000000
  0.036177  0.062661  0.000000      6.000000
  0.054266  0.073104  0.000000      6.000000
  0.000000  0.000000  0.020956      2.000000
  0.018089  0.010443  0.020956     12.000000
  0.036177  0.020887  0.020956     12.000000
  0.054266  0.031330  0.020956     12.000000
  0.072354  0.041774  0.020956      6.000000
  0.018089  0.031330  0.020956     12.000000
  0.036177  0.041774  0.020956     24.000000
  0.054266  0.052217  0.020956     24.000000
  0.036177  0.062661  0.020956     12.000000
  0.054266  0.073104  0.020956     12.000000
  0.000000  0.000000  0.041912      2.000000
  0.018089  0.010443  0.041912     12.000000
  0.036177  0.020887  0.041912     12.000000
  0.054266  0.031330  0.041912     12.000000
  0.072354  0.041774  0.041912      6.000000
  0.018089  0.031330  0.041912     12.000000
  0.036177  0.041774  0.041912     24.000000
  0.054266  0.052217  0.041912     24.000000
  0.036177  0.062661  0.041912     12.000000
  0.054266  0.073104  0.041912     12.000000
  0.000000  0.000000  0.062868      2.000000
  0.018089  0.010443  0.062868     12.000000
  0.036177  0.020887  0.062868     12.000000
  0.054266  0.031330  0.062868     12.000000
  0.072354  0.041774  0.062868      6.000000
  0.018089  0.031330  0.062868     12.000000
  0.036177  0.041774  0.062868     24.000000
  0.054266  0.052217  0.062868     24.000000
  0.036177  0.062661  0.062868     12.000000
  0.054266  0.073104  0.062868     12.000000
  0.000000  0.000000  0.083824      2.000000
  0.018089  0.010443  0.083824     12.000000
  0.036177  0.020887  0.083824     12.000000
  0.054266  0.031330  0.083824     12.000000
  0.072354  0.041774  0.083824      6.000000
  0.018089  0.031330  0.083824     12.000000
  0.036177  0.041774  0.083824     24.000000
  0.054266  0.052217  0.083824     24.000000
  0.036177  0.062661  0.083824     12.000000
  0.054266  0.073104  0.083824     12.000000
  0.000000  0.000000  0.104780      1.000000
  0.018089  0.010443  0.104780      6.000000
  0.036177  0.020887  0.104780      6.000000
  0.054266  0.031330  0.104780      6.000000
  0.072354  0.041774  0.104780      3.000000
  0.018089  0.031330  0.104780      6.000000
  0.036177  0.041774  0.104780     12.000000
  0.054266  0.052217  0.104780     12.000000
  0.036177  0.062661  0.104780      6.000000
  0.054266  0.073104  0.104780      6.000000
 


--------------------------------------------------------------------------------------------------------




 Dimension of arrays:
   k-points           NKPTS =     60   k-points in BZ     NKDIM =     60   number of bands    NBANDS=     72
   number of dos      NEDOS =    301   number of ions     NIONS =     16
   non local maximal  LDIM  =      6   non local SUM 2l+1 LMDIM =     18
   total plane-waves  NPLWV = 104976
   max r-space proj   IRMAX =      1   max aug-charges    IRDMAX= 151771
   dimension x,y,z NGX =    54 NGY =   54 NGZ =   36
   dimension x,y,z NGXF=   108 NGYF=  108 NGZF=   72
   support grid    NGXF=   216 NGYF=  216 NGZF=  144
   ions per type =              10   6
 NGX,Y,Z   is equivalent  to a cutoff of  12.99, 12.99, 12.54 a.u.
 NGXF,Y,Z  is equivalent  to a cutoff of  25.98, 25.98, 25.08 a.u.


 I would recommend the setting:
   dimension x,y,z NGX =    51 NGY =   51 NGZ =   35
 SYSTEM =  matgen-scf                              
 POSCAR =  Fe10 Si6                                

 Startparameter for this run:
   NWRITE =      2    write-flag & timer
   PREC   = accura    normal or accurate (medium, high low for compatibility)
   ISTART =      0    job   : 0-new  1-cont  2-samecut
   ICHARG =      2    charge: 1-file 2-atom 10-const
   ISPIN  =      2    spin polarized calculation?
   LNONCOLLINEAR =      F non collinear calculations
   LSORBIT =      F    spin-orbit coupling
   INIWAV =      1    electr: 0-lowe 1-rand  2-diag
   LASPH  =      F    aspherical Exc in radial PAW
   METAGGA=      F    non-selfconsistent MetaGGA calc.

 Electronic Relaxation 1
   ENCUT  =  520.0 eV  38.22 Ry    6.18 a.u.  12.85 12.85  8.87*2*pi/ulx,y,z
   ENINI  =  520.0     initial cutoff
   ENAUG  =  511.4 eV  augmentation charge cutoff
   NELM   =    140;   NELMIN=  6; NELMDL= -5     # of ELM steps 
   EDIFF  = 0.1E-03   stopping-criterion for ELM
   LREAL  =      F    real-space projection
   NLSPLINE    = F    spline interpolate recip. space projectors
   LCOMPAT=      F    compatible to vasp.4.4
   GGA_COMPAT  = T    GGA compatible to vasp.4.4-vasp.4.6
   LMAXPAW     = -100 max onsite density
   LMAXMIX     =    4 max onsite mixed and CHGCAR
   VOSKOWN=      0    Vosko Wilk Nusair interpolation
   ROPT   =    0.00000   0.00000
 Ionic relaxation
   EDIFFG = -.1E-01   stopping-criterion for IOM
   NSW    =      0    number of steps for IOM
   NBLOCK =      1;   KBLOCK =      1    inner block; outer block 
   IBRION =     -1    ionic relax: 0-MD 1-quasi-New 2-CG
   NFREE  =      0    steps in history (QN), initial steepest desc. (CG)
   ISIF   =      2    stress and relaxation
   IWAVPR =     10    prediction:  0-non 1-charg 2-wave 3-comb
   ISYM   =      2    0-nonsym 1-usesym 2-fastsym
   LCORR  =      T    Harris-Foulkes like correction to forces

   POTIM  = 0.0500    time-step for ionic-motion
   TEIN   =    0.0    initial temperature
   TEBEG  =    0.0;   TEEND  =   0.0 temperature during run
   SMASS  =  -3.00    Nose mass-parameter (am)
   estimated Nose-frequenzy (Omega)   =  0.10E-29 period in steps =****** mass=  -0.109E-26a.u.
   SCALEE = 1.0000    scale energy and forces
   NPACO  =    256;   APACO  = 16.0  distance and # of slots for P.C.
   PSTRESS=    0.0 pullay stress

  Mass of Ions in am
   POMASS =  55.85 28.09
  Ionic Valenz
   ZVAL   =   8.00  4.00
  Atomic Wigner-Seitz radii
   RWIGS  =  -1.00 -1.00
  virtual crystal weights 
   VCA    =   1.00  1.00
   NELECT =     104.0000    total number of electrons
   NUPDOWN=      -1.0000    fix difference up-down

 DOS related values:
   EMIN   =  10.00;   EMAX   =-10.00  energy-range for DOS
   EFERMI =   0.00
   ISMEAR =     0;   SIGMA  =   0.05  broadening in eV -4-tet -1-fermi 0-gaus

 Electronic relaxation 2 (details)
   IALGO  =     38    algorithm
   LDIAG  =      T    sub-space diagonalisation (order eigenvalues)
   LSUBROT=      F    optimize rotation matrix (better conditioning)
   TURBO    =      0    0=normal 1=particle mesh
   IRESTART =      0    0=no restart 2=restart with 2 vectors
   NREBOOT  =      0    no. of reboots
   NMIN     =      0    reboot dimension
   EREF     =   0.00    reference energy to select bands
   IMIX   =      4    mixing-type and parameters
     AMIX     =   0.10;   BMIX     =  1.20
     AMIX_MAG =   0.40;   BMIX_MAG =  1.20
     AMIN     =   0.10
     WC   =   100.;   INIMIX=   1;  MIXPRE=   1;  MAXMIX= -45

 Intra band minimization:
   WEIMIN = 0.0000     energy-eigenvalue tresh-hold
   EBREAK =  0.35E-06  absolut break condition
   DEPER  =   0.30     relativ break condition  

   TIME   =   0.40     timestep for ELM

  volume/ion in A,a.u.               =      12.33        83.23
  Fermi-wavevector in a.u.,A,eV,Ry     =   1.322339  2.498858 23.790882  1.748580
  Thomas-Fermi vector in A             =   2.452027
 
 Write flags
   LWAVE  =      F    write WAVECAR
   LCHARG =      T    write CHGCAR
   LVTOT  =      F    write LOCPOT, total local potential
   LVHAR  =      F    write LOCPOT, Hartree potential only
   LELF   =      F    write electronic localiz. function (ELF)
   LORBIT =     11    0 simple, 1 ext, 2 COOP (PROOUT)


 Dipole corrections
   LMONO  =      F    monopole corrections only (constant potential shift)
   LDIPOL =      F    correct potential (dipole corrections)
   IDIPOL =      0    1-x, 2-y, 3-z, 4-all directions 
   EPSILON=  1.0000000 bulk dielectric constant

 LDA+U is selected, type is set to LDAUTYPE =  2
   angular momentum for each species LDAUL =     2   -1
   U (eV)           for each species LDAUU =   4.6  0.0
   J (eV)           for each species LDAUJ =   0.0  0.0
 Exchange correlation treatment:
   GGA     =    --    GGA type
   LEXCH   =     8    internal setting for exchange type
   VOSKOWN=      0    Vosko Wilk Nusair interpolation
   LHFCALC =     F    Hartree Fock is set to
   LHFONE  =     F    Hartree Fock one center treatment
   AEXX    =    0.0000 exact exchange contribution

 Linear response parameters
   LEPSILON=     F    determine dielectric tensor
   LRPA    =     F    only Hartree local field effects (RPA)
   LNABLA  =     F    use nabla operator in PAW spheres
   LVEL    =     F    velocity operator in full k-point grid
   LINTERFAST=   F  fast interpolation
   KINTER  =     0    interpolate to denser k-point grid
   CSHIFT  =0.1000    complex shift for real part using Kramers Kronig
   OMEGAMAX=  -1.0    maximum frequency
   DEG_THRESHOLD= 0.2000000E-02 threshold for treating states as degnerate
   RTIME   =    0.100 relaxation time in fs

 Orbital magnetization related:
   ORBITALMAG=     F  switch on orbital magnetization
   LCHIMAG   =     F  perturbation theory with respect to B field
   DQ        =  0.001000  dq finite difference perturbation B field



--------------------------------------------------------------------------------------------------------


 Static calculation
 charge density and potential will be updated during run
 spin polarized calculation
 Variant of blocked Davidson
 Davidson routine will perform the subspace rotation
 perform sub-space diagonalisation
    after iterative eigenvector-optimisation
 modified Broyden-mixing scheme, WC =      100.0
 initial mixing is a Kerker type mixing with AMIX =  0.1000 and BMIX =      1.2000
 Hartree-type preconditioning will be used
 using additional bands           20
 reciprocal scheme for non local part
 use partial core corrections
 calculate Harris-corrections to forces 
   (improved forces if not selfconsistent)
 use gradient corrections 
 use of overlap-Matrix (Vanderbilt PP)
 Gauss-broadening in eV      SIGMA  =   0.05


--------------------------------------------------------------------------------------------------------


  energy-cutoff  :      520.00
  volume of cell :      197.35
      direct lattice vectors                 reciprocal lattice vectors
     6.910421036  0.000000000  0.000000000     0.144708983  0.083547770  0.000000000
    -3.455210518  5.984600168  0.000000000     0.000000000  0.167095541  0.000000000
     0.000000000  0.000000000  4.771882571     0.000000000  0.000000000  0.209560899

  length of vectors
     6.910421036  6.910421036  4.771882571     0.167095541  0.167095541  0.209560899


 
 k-points in units of 2pi/SCALE and weight: K-Mesh                                  
   0.00000000  0.00000000  0.00000000       0.002
   0.01808862  0.01044347  0.00000000       0.009
   0.03617725  0.02088694  0.00000000       0.009
   0.05426587  0.03133041  0.00000000       0.009
   0.07235449  0.04177389  0.00000000       0.005
   0.01808862  0.03133041  0.00000000       0.009
   0.03617725  0.04177389  0.00000000       0.019
   0.05426587  0.05221736  0.00000000       0.019
   0.03617725  0.06266083  0.00000000       0.009
   0.05426587  0.07310430  0.00000000       0.009
   0.00000000  0.00000000  0.02095609       0.003
   0.01808862  0.01044347  0.02095609       0.019
   0.03617725  0.02088694  0.02095609       0.019
   0.05426587  0.03133041  0.02095609       0.019
   0.07235449  0.04177389  0.02095609       0.009
   0.01808862  0.03133041  0.02095609       0.019
   0.03617725  0.04177389  0.02095609       0.037
   0.05426587  0.05221736  0.02095609       0.037
   0.03617725  0.06266083  0.02095609       0.019
   0.05426587  0.07310430  0.02095609       0.019
   0.00000000  0.00000000  0.04191218       0.003
   0.01808862  0.01044347  0.04191218       0.019
   0.03617725  0.02088694  0.04191218       0.019
   0.05426587  0.03133041  0.04191218       0.019
   0.07235449  0.04177389  0.04191218       0.009
   0.01808862  0.03133041  0.04191218       0.019
   0.03617725  0.04177389  0.04191218       0.037
   0.05426587  0.05221736  0.04191218       0.037
   0.03617725  0.06266083  0.04191218       0.019
   0.05426587  0.07310430  0.04191218       0.019
   0.00000000  0.00000000  0.06286827       0.003
   0.01808862  0.01044347  0.06286827       0.019
   0.03617725  0.02088694  0.06286827       0.019
   0.05426587  0.03133041  0.06286827       0.019
   0.07235449  0.04177389  0.06286827       0.009
   0.01808862  0.03133041  0.06286827       0.019
   0.03617725  0.04177389  0.06286827       0.037
   0.05426587  0.05221736  0.06286827       0.037
   0.03617725  0.06266083  0.06286827       0.019
   0.05426587  0.07310430  0.06286827       0.019
   0.00000000  0.00000000  0.08382436       0.003
   0.01808862  0.01044347  0.08382436       0.019
   0.03617725  0.02088694  0.08382436       0.019
   0.05426587  0.03133041  0.08382436       0.019
   0.07235449  0.04177389  0.08382436       0.009
   0.01808862  0.03133041  0.08382436       0.019
   0.03617725  0.04177389  0.08382436       0.037
   0.05426587  0.05221736  0.08382436       0.037
   0.03617725  0.06266083  0.08382436       0.019
   0.05426587  0.07310430  0.08382436       0.019
   0.00000000  0.00000000  0.10478045       0.002
   0.01808862  0.01044347  0.10478045       0.009
   0.03617725  0.02088694  0.10478045       0.009
   0.05426587  0.03133041  0.10478045       0.009
   0.07235449  0.04177389  0.10478045       0.005
   0.01808862  0.03133041  0.10478045       0.009
   0.03617725  0.04177389  0.10478045       0.019
   0.05426587  0.05221736  0.10478045       0.019
   0.03617725  0.06266083  0.10478045       0.009
   0.05426587  0.07310430  0.10478045       0.009
 
 k-points in reciprocal lattice and weights: K-Mesh                                  
   0.00000000  0.00000000  0.00000000       0.002
   0.12500000  0.00000000  0.00000000       0.009
   0.25000000  0.00000000  0.00000000       0.009
   0.37500000  0.00000000  0.00000000       0.009
   0.50000000  0.00000000  0.00000000       0.005
   0.12500000  0.12500000  0.00000000       0.009
   0.25000000  0.12500000  0.00000000       0.019
   0.37500000  0.12500000  0.00000000       0.019
   0.25000000  0.25000000  0.00000000       0.009
   0.37500000  0.25000000  0.00000000       0.009
   0.00000000  0.00000000  0.10000000       0.003
   0.12500000  0.00000000  0.10000000       0.019
   0.25000000  0.00000000  0.10000000       0.019
   0.37500000  0.00000000  0.10000000       0.019
   0.50000000  0.00000000  0.10000000       0.009
   0.12500000  0.12500000  0.10000000       0.019
   0.25000000  0.12500000  0.10000000       0.037
   0.37500000  0.12500000  0.10000000       0.037
   0.25000000  0.25000000  0.10000000       0.019
   0.37500000  0.25000000  0.10000000       0.019
   0.00000000  0.00000000  0.20000000       0.003
   0.12500000  0.00000000  0.20000000       0.019
   0.25000000  0.00000000  0.20000000       0.019
   0.37500000  0.00000000  0.20000000       0.019
   0.50000000  0.00000000  0.20000000       0.009
   0.12500000  0.12500000  0.20000000       0.019
   0.25000000  0.12500000  0.20000000       0.037
   0.37500000  0.12500000  0.20000000       0.037
   0.25000000  0.25000000  0.20000000       0.019
   0.37500000  0.25000000  0.20000000       0.019
   0.00000000  0.00000000  0.30000000       0.003
   0.12500000  0.00000000  0.30000000       0.019
   0.25000000  0.00000000  0.30000000       0.019
   0.37500000  0.00000000  0.30000000       0.019
   0.50000000  0.00000000  0.30000000       0.009
   0.12500000  0.12500000  0.30000000       0.019
   0.25000000  0.12500000  0.30000000       0.037
   0.37500000  0.12500000  0.30000000       0.037
   0.25000000  0.25000000  0.30000000       0.019
   0.37500000  0.25000000  0.30000000       0.019
   0.00000000  0.00000000  0.40000000       0.003
   0.12500000  0.00000000  0.40000000       0.019
   0.25000000  0.00000000  0.40000000       0.019
   0.37500000  0.00000000  0.40000000       0.019
   0.50000000  0.00000000  0.40000000       0.009
   0.12500000  0.12500000  0.40000000       0.019
   0.25000000  0.12500000  0.40000000       0.037
   0.37500000  0.12500000  0.40000000       0.037
   0.25000000  0.25000000  0.40000000       0.019
   0.37500000  0.25000000  0.40000000       0.019
   0.00000000  0.00000000  0.50000000       0.002
   0.12500000  0.00000000  0.50000000       0.009
   0.25000000  0.00000000  0.50000000       0.009
   0.37500000  0.00000000  0.50000000       0.009
   0.50000000  0.00000000  0.50000000       0.005
   0.12500000  0.12500000  0.50000000       0.009
   0.25000000  0.12500000  0.50000000       0.019
   0.37500000  0.12500000  0.50000000       0.019
   0.25000000  0.25000000  0.50000000       0.009
   0.37500000  0.25000000  0.50000000       0.009
 
 position of ions in fractional coordinates (direct lattice) 
   0.00000000  0.23340026  0.75000000
   0.00000000  0.76659974  0.25000000
   0.23340026  0.00000000  0.75000000
   0.23340026  0.23340026  0.25000000
   0.33333333  0.66666667  0.00000000
   0.33333333  0.66666667  0.50000000
   0.66666667  0.33333333  0.00000000
   0.66666667  0.33333333  0.50000000
   0.76659974  0.00000000  0.25000000
   0.76659974  0.76659974  0.75000000
   0.00000000  0.40219951  0.25000000
   0.00000000  0.59780049  0.75000000
   0.40219951  0.00000000  0.25000000
   0.40219951  0.40219951  0.75000000
   0.59780049  0.00000000  0.75000000
   0.59780049  0.59780049  0.25000000
 
 position of ions in cartesian coordinates  (Angst):
  -0.80644704  1.39680725  3.57891193
  -2.64876347  4.58779291  1.19297064
   1.61289409  0.00000000  3.57891193
   0.80644704  1.39680725  1.19297064
  -0.00000000  3.98973345  0.00000000
  -0.00000000  3.98973345  2.38594129
   3.45521052  1.99486672  0.00000000
   3.45521052  1.99486672  2.38594129
   5.29752695  0.00000000  1.19297064
   2.64876347  4.58779291  3.57891193
  -1.38968397  2.40700324  1.19297064
  -2.06552655  3.57759693  3.57891193
   2.77936794  0.00000000  1.19297064
   1.38968397  2.40700324  3.57891193
   4.13105310  0.00000000  3.57891193
   2.06552655  3.57759693  1.19297064
 


--------------------------------------------------------------------------------------------------------


 k-point  1 :   0.0000 0.0000 0.0000  plane waves:    5327
 k-point  2 :   0.1250 0.0000 0.0000  plane waves:    5293
 k-point  3 :   0.2500 0.0000 0.0000  plane waves:    5328
 k-point  4 :   0.3750 0.0000 0.0000  plane waves:    5302
 k-point  5 :   0.5000 0.0000 0.0000  plane waves:    5290
 k-point  6 :   0.1250 0.1250 0.0000  plane waves:    5317
 k-point  7 :   0.2500 0.1250 0.0000  plane waves:    5302
 k-point  8 :   0.3750 0.1250 0.0000  plane waves:    5304
 k-point  9 :   0.2500 0.2500 0.0000  plane waves:    5301
 k-point 10 :   0.3750 0.2500 0.0000  plane waves:    5319
 k-point 11 :   0.0000 0.0000 0.1000  plane waves:    5279
 k-point 12 :   0.1250 0.0000 0.1000  plane waves:    5306
 k-point 13 :   0.2500 0.0000 0.1000  plane waves:    5304
 k-point 14 :   0.3750 0.0000 0.1000  plane waves:    5313
 k-point 15 :   0.5000 0.0000 0.1000  plane waves:    5324
 k-point 16 :   0.1250 0.1250 0.1000  plane waves:    5297
 k-point 17 :   0.2500 0.1250 0.1000  plane waves:    5311
 k-point 18 :   0.3750 0.1250 0.1000  plane waves:    5302
 k-point 19 :   0.2500 0.2500 0.1000  plane waves:    5301
 k-point 20 :   0.3750 0.2500 0.1000  plane waves:    5303
 k-point 21 :   0.0000 0.0000 0.2000  plane waves:    5292
 k-point 22 :   0.1250 0.0000 0.2000  plane waves:    5305
 k-point 23 :   0.2500 0.0000 0.2000  plane waves:    5313
 k-point 24 :   0.3750 0.0000 0.2000  plane waves:    5319
 k-point 25 :   0.5000 0.0000 0.2000  plane waves:    5328
 k-point 26 :   0.1250 0.1250 0.2000  plane waves:    5319
 k-point 27 :   0.2500 0.1250 0.2000  plane waves:    5307
 k-point 28 :   0.3750 0.1250 0.2000  plane waves:    5305
 k-point 29 :   0.2500 0.2500 0.2000  plane waves:    5306
 k-point 30 :   0.3750 0.2500 0.2000  plane waves:    5307
 k-point 31 :   0.0000 0.0000 0.3000  plane waves:    5304
 k-point 32 :   0.1250 0.0000 0.3000  plane waves:    5317
 k-point 33 :   0.2500 0.0000 0.3000  plane waves:    5327
 k-point 34 :   0.3750 0.0000 0.3000  plane waves:    5308
 k-point 35 :   0.5000 0.0000 0.3000  plane waves:    5312
 k-point 36 :   0.1250 0.1250 0.3000  plane waves:    5313
 k-point 37 :   0.2500 0.1250 0.3000  plane waves:    5311
 k-point 38 :   0.3750 0.1250 0.3000  plane waves:    5325
 k-point 39 :   0.2500 0.2500 0.3000  plane waves:    5312
 k-point 40 :   0.3750 0.2500 0.3000  plane waves:    5315
 k-point 41 :   0.0000 0.0000 0.4000  plane waves:    5298
 k-point 42 :   0.1250 0.0000 0.4000  plane waves:    5318
 k-point 43 :   0.2500 0.0000 0.4000  plane waves:    5301
 k-point 44 :   0.3750 0.0000 0.4000  plane waves:    5317
 k-point 45 :   0.5000 0.0000 0.4000  plane waves:    5324
 k-point 46 :   0.1250 0.1250 0.4000  plane waves:    5298
 k-point 47 :   0.2500 0.1250 0.4000  plane waves:    5315
 k-point 48 :   0.3750 0.1250 0.4000  plane waves:    5329
 k-point 49 :   0.2500 0.2500 0.4000  plane waves:    5341
 k-point 50 :   0.3750 0.2500 0.4000  plane waves:    5331
 k-point 51 :   0.0000 0.0000 0.5000  plane waves:    5322
 k-point 52 :   0.1250 0.0000 0.5000  plane waves:    5288
 k-point 53 :   0.2500 0.0000 0.5000  plane waves:    5300
 k-point 54 :   0.3750 0.0000 0.5000  plane waves:    5324
 k-point 55 :   0.5000 0.0000 0.5000  plane waves:    5348
 k-point 56 :   0.1250 0.1250 0.5000  plane waves:    5294
 k-point 57 :   0.2500 0.1250 0.5000  plane waves:    5308
 k-point 58 :   0.3750 0.1250 0.5000  plane waves:    5338
 k-point 59 :   0.2500 0.2500 0.5000  plane waves:    5330
 k-point 60 :   0.3750 0.2500 0.5000  plane waves:    5354

 maximum and minimum number of plane-waves per node :      1350     1301

 maximum number of plane-waves:      5354
 maximum index in each direction: 
   IXMAX=   12   IYMAX=   12   IZMAX=    8
   IXMIN=  -13   IYMIN=  -13   IZMIN=   -9

 NGX is ok and might be reduce to  52
 NGY is ok and might be reduce to  52
 NGZ is ok and might be reduce to  36

 parallel 3D FFT for wavefunctions:
    minimum data exchange during FFTs selected (reduces bandwidth)
 parallel 3D FFT for charge:
    minimum data exchange during FFTs selected (reduces bandwidth)


 total amount of memory used by VASP on root node    97376. kBytes
========================================================================

   base      :      30000. kBytes
   nonl-proj :      23463. kBytes
   fftplans  :       6061. kBytes
   grid      :       5380. kBytes
   one-center:        124. kBytes
   wavefun   :      32348. kBytes
 
     INWAV:  cpu time    0.0000: real time    0.0002
 Broyden mixing: mesh for mixing (old mesh)
   NGX = 25   NGY = 25   NGZ = 17
  (NGX  =108   NGY  =108   NGZ  = 72)
  gives a total of  10625 points

 initial charge density was supplied:
 charge density of overlapping atoms calculated
 number of electron     104.0000000 magnetization      16.0000000
 keeping initial charge density in first step


--------------------------------------------------------------------------------------------------------


 Maximum index for augmentation-charges         6461 (set IRDMAX)


--------------------------------------------------------------------------------------------------------


 First call to EWALD:  gamma=   0.304
 Maximum number of real-space cells 3x 3x 3
 Maximum number of reciprocal cells 3x 3x 2

 FEWALD executed in parallel
    FEWALD:  cpu time    0.0020: real time    0.0028


----------------------------------------- Iteration    1(   1)  ---------------------------------------


    POTLOK:  cpu time    0.0680: real time    0.0680
    SETDIJ:  cpu time    0.1350: real time    0.1364
     EDDAV:  cpu time   11.5502: real time   11.5937
       DOS:  cpu time    0.0060: real time    0.0056
    --------------------------------------------
      LOOP:  cpu time   11.7632: real time   11.8209

 eigenvalue-minimisations  : 17280
 total energy-change (2. order) : 0.8524413E+03  (-0.4241717E+04)
 number of electron     104.0000000 magnetization      16.0000000
 augmentation part      104.0000000 magnetization      16.0000000

 Free energy of the ion-electron system (eV)
  ---------------------------------------------------
  alpha Z        PSCENC =       481.89030012
  Ewald energy   TEWEN  =     -6366.53181229
  -Hartree energ DENC   =     -1437.55067903
  -exchange      EXHF   =         0.00000000
  -V(xc)+E(xc)   XCENC  =       -10.83904891
  PAW double counting   =      6075.47230360    -5951.26530007
  entropy T*S    EENTRO =        -0.01189660
  eigenvalues    EBANDS =      1499.75250598
  atomic energy  EATOM  =      6561.52491524
  Solvation  Ediel_sol  =         0.00000000
  ---------------------------------------------------
  free energy    TOTEN  =       852.44128802 eV

  energy without entropy =      852.45318462  energy(sigma->0) =      852.44723632


--------------------------------------------------------------------------------------------------------




----------------------------------------- Iteration    1(   2)  ---------------------------------------


     EDDAV:  cpu time   11.5212: real time   11.5548
       DOS:  cpu time    0.0050: real time    0.0054
    --------------------------------------------
      LOOP:  cpu time   11.5282: real time   11.5770

 eigenvalue-minimisations  : 17280
 total energy-change (2. order) :-0.8521602E+03  (-0.8183733E+03)
 number of electron     104.0000000 magnetization      16.0000000
 augmentation part      104.0000000 magnetization      16.0000000

 Free energy of the ion-electron system (eV)
  ---------------------------------------------------
  alpha Z        PSCENC =       481.89030012
  Ewald energy   TEWEN  =     -6366.53181229
  -Hartree energ DENC   =     -1437.55067903
  -exchange      EXHF   =         0.00000000
  -V(xc)+E(xc)   XCENC  =       -10.83904891
  PAW double counting   =      6075.47230360    -5951.26530007
  entropy T*S    EENTRO =        -0.01995141
  eigenvalues    EBANDS =       647.60032726
  atomic energy  EATOM  =      6561.52491524
  Solvation  Ediel_sol  =         0.00000000
  ---------------------------------------------------
  free energy    TOTEN  =         0.28105449 eV

  energy without entropy =        0.30100590  energy(sigma->0) =        0.29103020


--------------------------------------------------------------------------------------------------------




----------------------------------------- Iteration    1(   3)  ---------------------------------------


     EDDAV:  cpu time   12.6471: real time   12.6866
       DOS:  cpu time    0.0050: real time    0.0055
    --------------------------------------------
      LOOP:  cpu time   12.6551: real time   12.7024

 eigenvalue-minimisations  : 19548
 total energy-change (2. order) :-0.7697900E+02  (-0.6748720E+02)
 number of electron     104.0000000 magnetization      16.0000000
 augmentation part      104.0000000 magnetization      16.0000000

 Free energy of the ion-electron system (eV)
  ---------------------------------------------------
  alpha Z        PSCENC =       481.89030012
  Ewald energy   TEWEN  =     -6366.53181229
  -Hartree energ DENC   =     -1437.55067903
  -exchange      EXHF   =         0.00000000
  -V(xc)+E(xc)   XCENC  =       -10.83904891
  PAW double counting   =      6075.47230360    -5951.26530007
  entropy T*S    EENTRO =        -0.02747198
  eigenvalues    EBANDS =       570.62884774
  atomic energy  EATOM  =      6561.52491524
  Solvation  Ediel_sol  =         0.00000000
  ---------------------------------------------------
  free energy    TOTEN  =       -76.69794560 eV

  energy without entropy =      -76.67047362  energy(sigma->0) =      -76.68420961


--------------------------------------------------------------------------------------------------------




----------------------------------------- Iteration    1(   4)  ---------------------------------------


     EDDAV:  cpu time   14.9307: real time   14.9637
       DOS:  cpu time    0.0050: real time    0.0057
    --------------------------------------------
      LOOP:  cpu time   14.9387: real time   14.9893

 eigenvalue-minimisations  : 24168
 total energy-change (2. order) :-0.4800883E+01  (-0.4654081E+01)
 number of electron     104.0000000 magnetization      16.0000000
 augmentation part      104.0000000 magnetization      16.0000000

 Free energy of the ion-electron system (eV)
  ---------------------------------------------------
  alpha Z        PSCENC =       481.89030012
  Ewald energy   TEWEN  =     -6366.53181229
  -Hartree energ DENC   =     -1437.55067903
  -exchange      EXHF   =         0.00000000
  -V(xc)+E(xc)   XCENC  =       -10.83904891
  PAW double counting   =      6075.47230360    -5951.26530007
  entropy T*S    EENTRO =        -0.02539555
  eigenvalues    EBANDS =       565.82588851
  atomic energy  EATOM  =      6561.52491524
  Solvation  Ediel_sol  =         0.00000000
  ---------------------------------------------------
  free energy    TOTEN  =       -81.49882840 eV

  energy without entropy =      -81.47343285  energy(sigma->0) =      -81.48613063


--------------------------------------------------------------------------------------------------------




----------------------------------------- Iteration    1(   5)  ---------------------------------------


     EDDAV:  cpu time   14.6718: real time   14.7057
       DOS:  cpu time    0.0060: real time    0.0058
    CHARGE:  cpu time    0.7099: real time    0.7128
    MIXING:  cpu time    0.0030: real time    0.0030
    --------------------------------------------
      LOOP:  cpu time   15.3937: real time   15.4532

 eigenvalue-minimisations  : 23640
 total energy-change (2. order) :-0.1077947E+00  (-0.1077030E+00)
 number of electron     104.0000002 magnetization      15.9121204
 augmentation part       34.0417565 magnetization      11.0968212

 Broyden mixing:
  rms(total) = 0.43685E+01    rms(broyden)= 0.43684E+01
  rms(prec ) = 0.63058E+01
  weight for this iteration     100.00

 Free energy of the ion-electron system (eV)
  ---------------------------------------------------
  alpha Z        PSCENC =       481.89030012
  Ewald energy   TEWEN  =     -6366.53181229
  -Hartree energ DENC   =     -1437.55067903
  -exchange      EXHF   =         0.00000000
  -V(xc)+E(xc)   XCENC  =       -10.83904891
  PAW double counting   =      6075.47230360    -5951.26530007
  entropy T*S    EENTRO =        -0.02534070
  eigenvalues    EBANDS =       565.71803893
  atomic energy  EATOM  =      6561.52491524
  Solvation  Ediel_sol  =         0.00000000
  ---------------------------------------------------
  free energy    TOTEN  =       -81.60662313 eV

  energy without entropy =      -81.58128243  energy(sigma->0) =      -81.59395278


--------------------------------------------------------------------------------------------------------




----------------------------------------- Iteration    1(   6)  ---------------------------------------


    POTLOK:  cpu time    0.0650: real time    0.0658
    SETDIJ:  cpu time    0.1340: real time    0.1344
     EDDAV:  cpu time   16.5355: real time   16.5719
       DOS:  cpu time    0.0060: real time    0.0059
    CHARGE:  cpu time    0.7129: real time    0.7131
    MIXING:  cpu time    0.0020: real time    0.0021
    --------------------------------------------
      LOOP:  cpu time   17.4573: real time   17.5153

 eigenvalue-minimisations  : 27456
 total energy-change (2. order) : 0.5644680E+01  (-0.3200848E+01)
 number of electron     104.0000002 magnetization      16.1206704
 augmentation part       37.6704212 magnetization      11.3663934

 Broyden mixing:
  rms(total) = 0.34194E+01    rms(broyden)= 0.34193E+01
  rms(prec ) = 0.50311E+01
  weight for this iteration     100.00

 eigenvalues of (default mixing * dielectric matrix)
  average eigenvalue GAMMA=   0.8337
  0.8337

 Free energy of the ion-electron system (eV)
  ---------------------------------------------------
  alpha Z        PSCENC =       481.89030012
  Ewald energy   TEWEN  =     -6366.53181229
  -Hartree energ DENC   =     -1376.44010396
  -exchange      EXHF   =         0.00000000
  -V(xc)+E(xc)   XCENC  =       -12.89375115
  PAW double counting   =      6303.13080278    -6170.18576389
  entropy T*S    EENTRO =        -0.01458826
  eigenvalues    EBANDS =       503.55805842
  atomic energy  EATOM  =      6561.52491524
  Solvation  Ediel_sol  =         0.00000000
  ---------------------------------------------------
  free energy    TOTEN  =       -75.96194299 eV

  energy without entropy =      -75.94735473  energy(sigma->0) =      -75.95464886


--------------------------------------------------------------------------------------------------------




----------------------------------------- Iteration    1(   7)  ---------------------------------------


    POTLOK:  cpu time    0.0660: real time    0.0658
    SETDIJ:  cpu time    0.1330: real time    0.1346
     EDDAV:  cpu time   16.0396: real time   16.0764
       DOS:  cpu time    0.0060: real time    0.0057
    CHARGE:  cpu time    0.7139: real time    0.7150
    MIXING:  cpu time    0.0020: real time    0.0018
    --------------------------------------------
      LOOP:  cpu time   16.9634: real time   17.0172

 eigenvalue-minimisations  : 26520
 total energy-change (2. order) : 0.3646716E+00  (-0.1882539E+01)
 number of electron     104.0000002 magnetization      16.8942638
 augmentation part       38.8280044 magnetization      12.1888191

 Broyden mixing:
  rms(total) = 0.28696E+01    rms(broyden)= 0.28695E+01
  rms(prec ) = 0.37651E+01
  weight for this iteration     100.00

 eigenvalues of (default mixing * dielectric matrix)
  average eigenvalue GAMMA=   1.0934
  1.8152  0.3717

 Free energy of the ion-electron system (eV)
  ---------------------------------------------------
  alpha Z        PSCENC =       481.89030012
  Ewald energy   TEWEN  =     -6366.53181229
  -Hartree energ DENC   =     -1354.08255351
  -exchange      EXHF   =         0.00000000
  -V(xc)+E(xc)   XCENC  =       -13.15505609
  PAW double counting   =      6473.53898188    -6337.30317490
  entropy T*S    EENTRO =        -0.02134481
  eigenvalues    EBANDS =       478.54247301
  atomic energy  EATOM  =      6561.52491524
  Solvation  Ediel_sol  =         0.00000000
  ---------------------------------------------------
  free energy    TOTEN  =       -75.59727136 eV

  energy without entropy =      -75.57592655  energy(sigma->0) =      -75.58659896


--------------------------------------------------------------------------------------------------------




----------------------------------------- Iteration    1(   8)  ---------------------------------------


    POTLOK:  cpu time    0.0650: real time    0.0659
    SETDIJ:  cpu time    0.1340: real time    0.1347
     EDDAV:  cpu time   14.8007: real time   14.8365
       DOS:  cpu time    0.0060: real time    0.0060
    CHARGE:  cpu time    0.7059: real time    0.7086
    MIXING:  cpu time    0.0020: real time    0.0016
    --------------------------------------------
      LOOP:  cpu time   15.7186: real time   15.7769

 eigenvalue-minimisations  : 23976
 total energy-change (2. order) :-0.2786599E+01  (-0.1330575E+01)
 number of electron     104.0000002 magnetization      18.1849010
 augmentation part       40.8801590 magnetization      14.2546359

 Broyden mixing:
  rms(total) = 0.20134E+01    rms(broyden)= 0.20133E+01
  rms(prec ) = 0.22241E+01
  weight for this iteration     100.00

 eigenvalues of (default mixing * dielectric matrix)
  average eigenvalue GAMMA=   1.8388
  3.7015  1.3935  0.4215

 Free energy of the ion-electron system (eV)
  ---------------------------------------------------
  alpha Z        PSCENC =       481.89030012
  Ewald energy   TEWEN  =     -6366.53181229
  -Hartree energ DENC   =     -1315.75875518
  -exchange      EXHF   =         0.00000000
  -V(xc)+E(xc)   XCENC  =       -12.42209994
  PAW double counting   =      6940.41406267    -6796.74857709
  entropy T*S    EENTRO =        -0.01367922
  eigenvalues    EBANDS =       429.26177483
  atomic energy  EATOM  =      6561.52491524
  Solvation  Ediel_sol  =         0.00000000
  ---------------------------------------------------
  free energy    TOTEN  =       -78.38387086 eV

  energy without entropy =      -78.37019165  energy(sigma->0) =      -78.37703125


--------------------------------------------------------------------------------------------------------




----------------------------------------- Iteration    1(   9)  ---------------------------------------


    POTLOK:  cpu time    0.0660: real time    0.0659
    SETDIJ:  cpu time    0.1340: real time    0.1349
     EDDAV:  cpu time   16.8244: real time   16.8626
       DOS:  cpu time    0.0050: real time    0.0056
    CHARGE:  cpu time    0.6989: real time    0.6996
    MIXING:  cpu time    0.0020: real time    0.0018
    --------------------------------------------
      LOOP:  cpu time   17.7353: real time   17.7909

 eigenvalue-minimisations  : 27984
 total energy-change (2. order) :-0.3131049E+01  (-0.4507670E+00)
 number of electron     104.0000003 magnetization      20.5023594
 augmentation part       41.0814987 magnetization      16.9422153

 Broyden mixing:
  rms(total) = 0.14829E+01    rms(broyden)= 0.14828E+01
  rms(prec ) = 0.15568E+01
  weight for this iteration     100.00

 eigenvalues of (default mixing * dielectric matrix)
  average eigenvalue GAMMA=   2.1704
  5.7169  0.4268  1.2689  1.2689

 Free energy of the ion-electron system (eV)
  ---------------------------------------------------
  alpha Z        PSCENC =       481.89030012
  Ewald energy   TEWEN  =     -6366.53181229
  -Hartree energ DENC   =     -1305.69904503
  -exchange      EXHF   =         0.00000000
  -V(xc)+E(xc)   XCENC  =        -9.12178617
  PAW double counting   =      7553.74950005    -7406.62023723
  entropy T*S    EENTRO =        -0.00991412
  eigenvalues    EBANDS =       409.30315939
  atomic energy  EATOM  =      6561.52491524
  Solvation  Ediel_sol  =         0.00000000
  ---------------------------------------------------
  free energy    TOTEN  =       -81.51492004 eV

  energy without entropy =      -81.50500593  energy(sigma->0) =      -81.50996298


--------------------------------------------------------------------------------------------------------




----------------------------------------- Iteration    1(  10)  ---------------------------------------


    POTLOK:  cpu time    0.0660: real time    0.0660
    SETDIJ:  cpu time    0.1340: real time    0.1345
     EDDAV:  cpu time   16.7465: real time   16.7835
       DOS:  cpu time    0.0060: real time    0.0058
    CHARGE:  cpu time    0.6889: real time    0.6900
    MIXING:  cpu time    0.0020: real time    0.0017
    --------------------------------------------
      LOOP:  cpu time   17.6453: real time   17.7021

 eigenvalue-minimisations  : 27828
 total energy-change (2. order) :-0.1326566E+01  (-0.4394292E+00)
 number of electron     104.0000003 magnetization      21.8804311
 augmentation part       40.8982008 magnetization      18.8344278

 Broyden mixing:
  rms(total) = 0.10543E+01    rms(broyden)= 0.10542E+01
  rms(prec ) = 0.10860E+01
  weight for this iteration     100.00

 eigenvalues of (default mixing * dielectric matrix)
  average eigenvalue GAMMA=   2.2415
  5.0491  2.3957  2.3957  0.4271  0.9401

 Free energy of the ion-electron system (eV)
  ---------------------------------------------------
  alpha Z        PSCENC =       481.89030012
  Ewald energy   TEWEN  =     -6366.53181229
  -Hartree energ DENC   =     -1297.79929106
  -exchange      EXHF   =         0.00000000
  -V(xc)+E(xc)   XCENC  =        -3.10912581
  PAW double counting   =      8587.56020699    -8437.89083398
  entropy T*S    EENTRO =        -0.00779626
  eigenvalues    EBANDS =       391.52195149
  atomic energy  EATOM  =      6561.52491524
  Solvation  Ediel_sol  =         0.00000000
  ---------------------------------------------------
  free energy    TOTEN  =       -82.84148557 eV

  energy without entropy =      -82.83368931  energy(sigma->0) =      -82.83758744


--------------------------------------------------------------------------------------------------------




----------------------------------------- Iteration    1(  11)  ---------------------------------------


    POTLOK:  cpu time    0.0660: real time    0.0660
    SETDIJ:  cpu time    0.1340: real time    0.1347
     EDDAV:  cpu time   15.4626: real time   15.4981
       DOS:  cpu time    0.0050: real time    0.0055
    CHARGE:  cpu time    0.6909: real time    0.6920
    MIXING:  cpu time    0.0010: real time    0.0018
    --------------------------------------------
      LOOP:  cpu time   16.3645: real time   16.4196

 eigenvalue-minimisations  : 25284
 total energy-change (2. order) :-0.6345518E+00  (-0.1782828E+00)
 number of electron     104.0000003 magnetization      23.3572125
 augmentation part       41.0098716 magnetization      20.0871090

 Broyden mixing:
  rms(total) = 0.60707E+00    rms(broyden)= 0.60706E+00
  rms(prec ) = 0.76451E+00
  weight for this iteration     100.00

 eigenvalues of (default mixing * dielectric matrix)
  average eigenvalue GAMMA=   2.5812
  7.2353  4.1116  1.9133  0.4268  0.9750  0.8253

 Free energy of the ion-electron system (eV)
  ---------------------------------------------------
  alpha Z        PSCENC =       481.89030012
  Ewald energy   TEWEN  =     -6366.53181229
  -Hartree energ DENC   =     -1292.86807682
  -exchange      EXHF   =         0.00000000
  -V(xc)+E(xc)   XCENC  =        -4.36312474
  PAW double counting   =      9022.43426716    -8881.44650583
  entropy T*S    EENTRO =        -0.00541390
  eigenvalues    EBANDS =       395.88941365
  atomic energy  EATOM  =      6561.52491524
  Solvation  Ediel_sol  =         0.00000000
  ---------------------------------------------------
  free energy    TOTEN  =       -83.47603741 eV

  energy without entropy =      -83.47062351  energy(sigma->0) =      -83.47333046


--------------------------------------------------------------------------------------------------------




----------------------------------------- Iteration    1(  12)  ---------------------------------------


    POTLOK:  cpu time    0.0650: real time    0.0659
    SETDIJ:  cpu time    0.1350: real time    0.1352
     EDDAV:  cpu time   14.9007: real time   14.9344
       DOS:  cpu time    0.0060: real time    0.0056
    CHARGE:  cpu time    0.6909: real time    0.6919
    MIXING:  cpu time    0.0020: real time    0.0019
    --------------------------------------------
      LOOP:  cpu time   15.8026: real time   15.8584

 eigenvalue-minimisations  : 24132
 total energy-change (2. order) :-0.1923559E+00  (-0.5616016E-01)
 number of electron     104.0000003 magnetization      23.7239621
 augmentation part       40.8342430 magnetization      20.3851932

 Broyden mixing:
  rms(total) = 0.32808E+00    rms(broyden)= 0.32806E+00
  rms(prec ) = 0.45895E+00
  weight for this iteration     100.00

 eigenvalues of (default mixing * dielectric matrix)
  average eigenvalue GAMMA=   2.7327
  9.0614  4.0913  2.1309  0.4269  1.4129  1.1503  0.8550

 Free energy of the ion-electron system (eV)
  ---------------------------------------------------
  alpha Z        PSCENC =       481.89030012
  Ewald energy   TEWEN  =     -6366.53181229
  -Hartree energ DENC   =     -1290.14424822
  -exchange      EXHF   =         0.00000000
  -V(xc)+E(xc)   XCENC  =        -2.97333051
  PAW double counting   =      9654.03971540    -9517.10461782
  entropy T*S    EENTRO =        -0.00652211
  eigenvalues    EBANDS =       395.63720686
  atomic energy  EATOM  =      6561.52491524
  Solvation  Ediel_sol  =         0.00000000
  ---------------------------------------------------
  free energy    TOTEN  =       -83.66839334 eV

  energy without entropy =      -83.66187122  energy(sigma->0) =      -83.66513228


--------------------------------------------------------------------------------------------------------




----------------------------------------- Iteration    1(  13)  ---------------------------------------


    POTLOK:  cpu time    0.0650: real time    0.0660
    SETDIJ:  cpu time    0.1340: real time    0.1347
     EDDAV:  cpu time   17.2254: real time   17.2627
       DOS:  cpu time    0.0060: real time    0.0056
    CHARGE:  cpu time    0.6899: real time    0.6914
    MIXING:  cpu time    0.0020: real time    0.0020
    --------------------------------------------
      LOOP:  cpu time   18.1262: real time   18.1816

 eigenvalue-minimisations  : 28644
 total energy-change (2. order) :-0.1122090E+00  (-0.1983038E-01)
 number of electron     104.0000002 magnetization      23.5606894
 augmentation part       40.7833308 magnetization      20.2000810

 Broyden mixing:
  rms(total) = 0.16371E+00    rms(broyden)= 0.16367E+00
  rms(prec ) = 0.18928E+00
  weight for this iteration     100.00

 eigenvalues of (default mixing * dielectric matrix)
  average eigenvalue GAMMA=   2.6678
  9.1722  4.3829  2.6907  1.6611  0.4269  1.2421  0.8832  0.8832

 Free energy of the ion-electron system (eV)
  ---------------------------------------------------
  alpha Z        PSCENC =       481.89030012
  Ewald energy   TEWEN  =     -6366.53181229
  -Hartree energ DENC   =     -1288.73851428
  -exchange      EXHF   =         0.00000000
  -V(xc)+E(xc)   XCENC  =        -2.52743372
  PAW double counting   =      9885.50812950    -9748.85017465
  entropy T*S    EENTRO =        -0.00575502
  eigenvalues    EBANDS =       393.94974275
  atomic energy  EATOM  =      6561.52491524
  Solvation  Ediel_sol  =         0.00000000
  ---------------------------------------------------
  free energy    TOTEN  =       -83.78060236 eV

  energy without entropy =      -83.77484733  energy(sigma->0) =      -83.77772485


--------------------------------------------------------------------------------------------------------




----------------------------------------- Iteration    1(  14)  ---------------------------------------


    POTLOK:  cpu time    0.0660: real time    0.0659
    SETDIJ:  cpu time    0.1330: real time    0.1345
     EDDAV:  cpu time   16.6105: real time   16.6466
       DOS:  cpu time    0.0050: real time    0.0056
    CHARGE:  cpu time    0.6889: real time    0.6903
    MIXING:  cpu time    0.0020: real time    0.0021
    --------------------------------------------
      LOOP:  cpu time   17.5103: real time   17.5703

 eigenvalue-minimisations  : 27564
 total energy-change (2. order) :-0.6342057E-01  (-0.1109328E-01)
 number of electron     104.0000002 magnetization      23.5265308
 augmentation part       40.7803890 magnetization      20.1278541

 Broyden mixing:
  rms(total) = 0.11211E+00    rms(broyden)= 0.11205E+00
  rms(prec ) = 0.13497E+00
  weight for this iteration     100.00

 eigenvalues of (default mixing * dielectric matrix)
  average eigenvalue GAMMA=   2.6775
  9.2879  5.0119  3.2110  0.4269  1.6093  1.6093  0.8838  1.0289  1.0289

 Free energy of the ion-electron system (eV)
  ---------------------------------------------------
  alpha Z        PSCENC =       481.89030012
  Ewald energy   TEWEN  =     -6366.53181229
  -Hartree energ DENC   =     -1288.70649414
  -exchange      EXHF   =         0.00000000
  -V(xc)+E(xc)   XCENC  =        -2.79135120
  PAW double counting   =      9885.94417786    -9748.88483135
  entropy T*S    EENTRO =        -0.00664335
  eigenvalues    EBANDS =       393.71771618
  atomic energy  EATOM  =      6561.52491524
  Solvation  Ediel_sol  =         0.00000000
  ---------------------------------------------------
  free energy    TOTEN  =       -83.84402293 eV

  energy without entropy =      -83.83737957  energy(sigma->0) =      -83.84070125


--------------------------------------------------------------------------------------------------------




----------------------------------------- Iteration    1(  15)  ---------------------------------------


    POTLOK:  cpu time    0.0650: real time    0.0659
    SETDIJ:  cpu time    0.1350: real time    0.1349
     EDDAV:  cpu time   15.7176: real time   15.7649
       DOS:  cpu time    0.0050: real time    0.0057
    CHARGE:  cpu time    0.6889: real time    0.6904
    MIXING:  cpu time    0.0020: real time    0.0022
    --------------------------------------------
      LOOP:  cpu time   16.6165: real time   16.6793

 eigenvalue-minimisations  : 25764
 total energy-change (2. order) :-0.3882893E-01  (-0.5277995E-02)
 number of electron     104.0000002 magnetization      23.4193002
 augmentation part       40.7840444 magnetization      20.0019153

 Broyden mixing:
  rms(total) = 0.83488E-01    rms(broyden)= 0.83410E-01
  rms(prec ) = 0.10235E+00
  weight for this iteration     100.00

 eigenvalues of (default mixing * dielectric matrix)
  average eigenvalue GAMMA=   2.6177
  9.2502  5.2003  3.2289  0.4269  1.8513  1.6826  1.6826  0.9596  0.9596  0.9346

 Free energy of the ion-electron system (eV)
  ---------------------------------------------------
  alpha Z        PSCENC =       481.89030012
  Ewald energy   TEWEN  =     -6366.53181229
  -Hartree energ DENC   =     -1288.58222125
  -exchange      EXHF   =         0.00000000
  -V(xc)+E(xc)   XCENC  =        -2.90681083
  PAW double counting   =      9939.60547886    -9802.86986965
  entropy T*S    EENTRO =        -0.00682616
  eigenvalues    EBANDS =       393.99399411
  atomic energy  EATOM  =      6561.52491524
  Solvation  Ediel_sol  =         0.00000000
  ---------------------------------------------------
  free energy    TOTEN  =       -83.88285186 eV

  energy without entropy =      -83.87602570  energy(sigma->0) =      -83.87943878


--------------------------------------------------------------------------------------------------------




----------------------------------------- Iteration    1(  16)  ---------------------------------------


    POTLOK:  cpu time    0.0650: real time    0.0661
    SETDIJ:  cpu time    0.1350: real time    0.1349
     EDDAV:  cpu time   15.7626: real time   15.8070
       DOS:  cpu time    0.0050: real time    0.0055
    CHARGE:  cpu time    0.6899: real time    0.6905
    MIXING:  cpu time    0.0020: real time    0.0023
    --------------------------------------------
      LOOP:  cpu time   16.6635: real time   16.7241

 eigenvalue-minimisations  : 25800
 total energy-change (2. order) :-0.2480047E-01  (-0.2700698E-02)
 number of electron     104.0000002 magnetization      23.2211509
 augmentation part       40.7642590 magnetization      19.8227913

 Broyden mixing:
  rms(total) = 0.72464E-01    rms(broyden)= 0.72415E-01
  rms(prec ) = 0.85911E-01
  weight for this iteration     100.00

 eigenvalues of (default mixing * dielectric matrix)
  average eigenvalue GAMMA=   2.8102
  7.9956  7.9956  4.4571  2.3096  2.1761  0.4269  1.6362  1.0426  1.0426  0.9193
  0.9103

 Free energy of the ion-electron system (eV)
  ---------------------------------------------------
  alpha Z        PSCENC =       481.89030012
  Ewald energy   TEWEN  =     -6366.53181229
  -Hartree energ DENC   =     -1289.27460847
  -exchange      EXHF   =         0.00000000
  -V(xc)+E(xc)   XCENC  =        -2.89150861
  PAW double counting   =      9941.41076221    -9804.72101395
  entropy T*S    EENTRO =        -0.00695114
  eigenvalues    EBANDS =       394.69226457
  atomic energy  EATOM  =      6561.52491524
  Solvation  Ediel_sol  =         0.00000000
  ---------------------------------------------------
  free energy    TOTEN  =       -83.90765233 eV

  energy without entropy =      -83.90070119  energy(sigma->0) =      -83.90417676


--------------------------------------------------------------------------------------------------------




----------------------------------------- Iteration    1(  17)  ---------------------------------------


    POTLOK:  cpu time    0.0750: real time    0.0747
    SETDIJ:  cpu time    0.1340: real time    0.1348
     EDDAV:  cpu time   16.3855: real time   16.4231
       DOS:  cpu time    0.0060: real time    0.0051
    CHARGE:  cpu time    0.6879: real time    0.6907
    MIXING:  cpu time    0.0030: real time    0.0025
    --------------------------------------------
      LOOP:  cpu time   17.2934: real time   17.3547

 eigenvalue-minimisations  : 26964
 total energy-change (2. order) :-0.2931396E-01  (-0.3423792E-02)
 number of electron     104.0000002 magnetization      23.1500033
 augmentation part       40.7859615 magnetization      19.7925719

 Broyden mixing:
  rms(total) = 0.62901E-01    rms(broyden)= 0.62784E-01
  rms(prec ) = 0.75871E-01
  weight for this iteration     100.00

 eigenvalues of (default mixing * dielectric matrix)
  average eigenvalue GAMMA=   2.7859
  8.5955  8.5955  3.4771  3.4771  2.0431  0.4269  1.4752  1.4752  1.0036  1.0036
  0.8883  0.9691

 Free energy of the ion-electron system (eV)
  ---------------------------------------------------
  alpha Z        PSCENC =       481.89030012
  Ewald energy   TEWEN  =     -6366.53181229
  -Hartree energ DENC   =     -1289.81844071
  -exchange      EXHF   =         0.00000000
  -V(xc)+E(xc)   XCENC  =        -2.88505150
  PAW double counting   =      9925.24632218    -9788.14896636
  entropy T*S    EENTRO =        -0.00649645
  eigenvalues    EBANDS =       394.79226349
  atomic energy  EATOM  =      6561.52491524
  Solvation  Ediel_sol  =         0.00000000
  ---------------------------------------------------
  free energy    TOTEN  =       -83.93696630 eV

  energy without entropy =      -83.93046984  energy(sigma->0) =      -83.93371807


--------------------------------------------------------------------------------------------------------




----------------------------------------- Iteration    1(  18)  ---------------------------------------


    POTLOK:  cpu time    0.0650: real time    0.0661
    SETDIJ:  cpu time    0.1350: real time    0.1346
     EDDAV:  cpu time   15.0907: real time   15.1271
       DOS:  cpu time    0.0050: real time    0.0051
    CHARGE:  cpu time    0.6889: real time    0.6907
    MIXING:  cpu time    0.0020: real time    0.0026
    --------------------------------------------
      LOOP:  cpu time   15.9916: real time   16.0483

 eigenvalue-minimisations  : 24420
 total energy-change (2. order) :-0.8730915E-02  (-0.1058557E-02)
 number of electron     104.0000002 magnetization      23.0696599
 augmentation part       40.7888623 magnetization      19.7104044

 Broyden mixing:
  rms(total) = 0.60182E-01    rms(broyden)= 0.60150E-01
  rms(prec ) = 0.72543E-01
  weight for this iteration     100.00

 eigenvalues of (default mixing * dielectric matrix)
  average eigenvalue GAMMA=   2.8510
  9.2104  9.2104  3.9563  3.9563  1.9271  1.7932  1.7932  0.4269  1.0613  1.0613
  0.9711  0.8476  0.8476

 Free energy of the ion-electron system (eV)
  ---------------------------------------------------
  alpha Z        PSCENC =       481.89030012
  Ewald energy   TEWEN  =     -6366.53181229
  -Hartree energ DENC   =     -1290.33088072
  -exchange      EXHF   =         0.00000000
  -V(xc)+E(xc)   XCENC  =        -3.02999882
  PAW double counting   =      9902.42481945    -9765.36936634
  entropy T*S    EENTRO =        -0.00614292
  eigenvalues    EBANDS =       395.48246908
  atomic energy  EATOM  =      6561.52491524
  Solvation  Ediel_sol  =         0.00000000
  ---------------------------------------------------
  free energy    TOTEN  =       -83.94569721 eV

  energy without entropy =      -83.93955429  energy(sigma->0) =      -83.94262575


--------------------------------------------------------------------------------------------------------




----------------------------------------- Iteration    1(  19)  ---------------------------------------


    POTLOK:  cpu time    0.0650: real time    0.0661
    SETDIJ:  cpu time    0.1350: real time    0.1352
     EDDAV:  cpu time   17.4453: real time   17.4948
       DOS:  cpu time    0.0060: real time    0.0056
    CHARGE:  cpu time    0.6889: real time    0.6901
    MIXING:  cpu time    0.0030: real time    0.0028
    --------------------------------------------
      LOOP:  cpu time   18.3462: real time   18.4109

 eigenvalue-minimisations  : 29028
 total energy-change (2. order) :-0.2769477E-01  (-0.3182994E-02)
 number of electron     104.0000002 magnetization      23.0511718
 augmentation part       40.8004434 magnetization      19.7069166

 Broyden mixing:
  rms(total) = 0.59005E-01    rms(broyden)= 0.58866E-01
  rms(prec ) = 0.71723E-01
  weight for this iteration     100.00

 eigenvalues of (default mixing * dielectric matrix)
  average eigenvalue GAMMA=   2.7637
  9.4982  9.4982  4.0140  4.0140  1.9250  1.7734  1.7734  0.4269  1.1135  1.0600
  1.0600  0.8795  0.8279  0.8279

 Free energy of the ion-electron system (eV)
  ---------------------------------------------------
  alpha Z        PSCENC =       481.89030012
  Ewald energy   TEWEN  =     -6366.53181229
  -Hartree energ DENC   =     -1291.12737525
  -exchange      EXHF   =         0.00000000
  -V(xc)+E(xc)   XCENC  =        -3.01623122
  PAW double counting   =      9907.49370843    -9770.13776163
  entropy T*S    EENTRO =        -0.00623793
  eigenvalues    EBANDS =       395.93710256
  atomic energy  EATOM  =      6561.52491524
  Solvation  Ediel_sol  =         0.00000000
  ---------------------------------------------------
  free energy    TOTEN  =       -83.97339198 eV

  energy without entropy =      -83.96715405  energy(sigma->0) =      -83.97027302


--------------------------------------------------------------------------------------------------------




----------------------------------------- Iteration    1(  20)  ---------------------------------------


    POTLOK:  cpu time    0.0670: real time    0.0662
    SETDIJ:  cpu time    0.1320: real time    0.1356
     EDDAV:  cpu time   14.0819: real time   14.1136
       DOS:  cpu time    0.0060: real time    0.0057
    CHARGE:  cpu time    0.6889: real time    0.6898
    MIXING:  cpu time    0.0030: real time    0.0030
    --------------------------------------------
      LOOP:  cpu time   14.9807: real time   15.0359

 eigenvalue-minimisations  : 22380
 total energy-change (2. order) :-0.5677287E-02  (-0.6460873E-03)
 number of electron     104.0000002 magnetization      23.0802512
 augmentation part       40.7978230 magnetization      19.7359954

 Broyden mixing:
  rms(total) = 0.59695E-01    rms(broyden)= 0.59673E-01
  rms(prec ) = 0.72458E-01
  weight for this iteration     100.00

 eigenvalues of (default mixing * dielectric matrix)
  average eigenvalue GAMMA=   2.7126
  9.4111  9.4111  4.1706  4.1706  1.5798  2.0779  2.0779  1.6259  0.4269  1.1343
  1.0120  1.0120  0.9156  0.9156  0.7485

 Free energy of the ion-electron system (eV)
  ---------------------------------------------------
  alpha Z        PSCENC =       481.89030012
  Ewald energy   TEWEN  =     -6366.53181229
  -Hartree energ DENC   =     -1291.33903640
  -exchange      EXHF   =         0.00000000
  -V(xc)+E(xc)   XCENC  =        -3.04022486
  PAW double counting   =      9904.13695356    -9766.73449365
  entropy T*S    EENTRO =        -0.00641498
  eigenvalues    EBANDS =       396.12074400
  atomic energy  EATOM  =      6561.52491524
  Solvation  Ediel_sol  =         0.00000000
  ---------------------------------------------------
  free energy    TOTEN  =       -83.97906927 eV

[...]
     58      10.9514      0.00000
     59      10.9749      0.00000
     60      10.9749      0.00000
     61      11.0934      0.00000
     62      11.0934      0.00000
     63      11.4625      0.00000
     64      11.4625      0.00000
     65      11.5085      0.00000
     66      11.5085      0.00000
     67      12.1442      0.00000
     68      12.1442      0.00000
     69      12.4768      0.00000
     70      12.4768      0.00000
     71      12.4854      0.00000
     72      12.4854      0.00000


--------------------------------------------------------------------------------------------------------


 soft charge-density along one line, spin component           1
         0         1         2         3         4         5         6         7         8         9
 total charge-density along one line
 
 soft charge-density along one line, spin component           2
         0         1         2         3         4         5         6         7         8         9
 total charge-density along one line
 
 pseudopotential strength for first ion, spin component:           1
 -5.873   0.000  -0.090   0.000   0.311  -6.477   0.000  -0.091
  0.000  -6.666   0.000  -0.002   0.000   0.000  -7.258   0.000
 -0.090   0.000  -6.170  -0.000  -0.052  -0.091   0.000  -6.767
  0.000  -0.002  -0.000  -6.668  -0.000   0.000  -0.002  -0.000
  0.311   0.000  -0.052  -0.000  -6.232   0.307   0.000  -0.052
 -6.477   0.000  -0.091   0.000   0.307  -7.054   0.000  -0.092
  0.000  -7.258   0.000  -0.002   0.000   0.000  -7.827   0.000
 -0.091   0.000  -6.767  -0.000  -0.052  -0.092   0.000  -7.339
  0.000  -0.002  -0.000  -7.261  -0.000   0.000  -0.002  -0.000
  0.307   0.000  -0.052  -0.000  -6.831   0.305   0.000  -0.053
 -0.004   0.000   0.049  -0.000  -0.002  -0.004   0.000   0.048
 -0.008   0.000   0.092  -0.000  -0.004  -0.007   0.000   0.091
 -0.008  -0.000  -0.005   0.000  -0.010  -0.008  -0.000  -0.006
  0.000   0.010   0.000  -0.006   0.000   0.000   0.010   0.000
  0.010   0.000   0.003  -0.000  -0.003   0.010   0.000   0.003
 -0.008  -0.000  -0.006   0.000  -0.010  -0.008  -0.000  -0.006
  0.000   0.010   0.000  -0.006   0.000   0.000   0.010   0.000
  0.010   0.000   0.003  -0.000  -0.004   0.010   0.000   0.004
 pseudopotential strength for first ion, spin component:           2
 -3.425  -0.000   0.160   0.000  -1.354  -4.058  -0.000   0.162
 -0.000  -0.738  -0.000  -0.024  -0.000  -0.000  -1.325  -0.000
  0.160  -0.000  -3.319  -0.000   0.092   0.162  -0.000  -3.942
  0.000  -0.024  -0.000  -0.766   0.000   0.000  -0.025  -0.000
 -1.354  -0.000   0.092   0.000  -1.862  -1.373  -0.000   0.093
 -4.058  -0.000   0.162   0.000  -1.373  -4.654  -0.000   0.165
 -0.000  -1.325  -0.000  -0.025  -0.000  -0.000  -1.850  -0.000
  0.162  -0.000  -3.942  -0.000   0.093   0.165  -0.000  -4.525
  0.000  -0.025  -0.000  -1.354   0.000   0.000  -0.025  -0.000
 -1.373  -0.000   0.093   0.000  -2.472  -1.405  -0.000   0.095
  0.008  -0.000   0.001  -0.000   0.005   0.008  -0.000   0.001
  0.015  -0.000   0.000  -0.000   0.009   0.016  -0.000  -0.001
 -0.006  -0.000  -0.004   0.000  -0.008  -0.007  -0.000  -0.004
  0.000   0.009   0.000  -0.005   0.000   0.000   0.009   0.000
  0.008   0.000   0.002  -0.000  -0.002   0.008   0.000   0.002
 -0.006  -0.000  -0.004   0.000  -0.008  -0.007  -0.000  -0.004
  0.000   0.009   0.000  -0.005   0.000   0.000   0.009   0.000
  0.008   0.000   0.002  -0.000  -0.003   0.008   0.000   0.002
 total augmentation occupancy for first ion, spin component:           1
  2.983   0.000   0.050  -0.000   0.014  -1.897   0.000   0.106  -0.000   0.008  -0.379   0.054   0.165  -0.000  -0.108  -0.025
  0.000   2.931   0.000   0.048   0.000   0.000  -1.704   0.000  -0.073   0.000   0.000   0.000   0.000  -0.126   0.000  -0.000
  0.050  -0.000   2.632   0.000   0.029   0.099   0.000  -1.506   0.000   0.057   0.201  -0.013   0.035   0.000  -0.020  -0.006
  0.000   0.048   0.000   2.986   0.000   0.000  -0.073  -0.000  -1.788  -0.000   0.000  -0.000  -0.000   0.073  -0.000   0.000
  0.014   0.000   0.029   0.000   2.967   0.008   0.000   0.061   0.000  -1.906  -0.219   0.031   0.108  -0.000  -0.040  -0.018
 -1.897  -0.000   0.099   0.000   0.008   2.454  -0.000  -0.258   0.000   0.232   0.385  -0.058  -0.171  -0.000   0.102   0.018
  0.000  -1.704   0.000  -0.073   0.000  -0.000   1.582  -0.000   0.102   0.000   0.000   0.000   0.000   0.117   0.000  -0.000
  0.106   0.000  -1.506   0.000   0.061  -0.258   0.000   1.971  -0.000  -0.149  -0.253   0.042  -0.028   0.000   0.016   0.002
  0.000  -0.073   0.000  -1.788  -0.000  -0.000   0.102   0.000   1.700  -0.000  -0.000  -0.000   0.000  -0.068   0.000   0.000
  0.008   0.000   0.057   0.000  -1.906   0.232   0.000  -0.149  -0.000   2.187   0.222  -0.034  -0.102   0.000   0.053   0.011
 -0.379   0.000   0.201   0.000  -0.219   0.385  -0.000  -0.253   0.000   0.222   2.027  -0.290   0.024   0.000  -0.014  -0.007
  0.054   0.000  -0.013  -0.000   0.031  -0.058  -0.000   0.042  -0.000  -0.034  -0.290   0.051  -0.014   0.000   0.008   0.002
  0.165  -0.000   0.035   0.000   0.108  -0.171  -0.000  -0.028   0.000  -0.102   0.024  -0.014   0.257  -0.000   0.023  -0.026
  0.000  -0.126   0.000   0.073   0.000   0.000   0.117   0.000  -0.068  -0.000  -0.000   0.000   0.000   0.229   0.000  -0.000
 -0.108   0.000  -0.020  -0.000  -0.040   0.102  -0.000   0.016   0.000   0.053  -0.014   0.008   0.023   0.000   0.283  -0.003
 -0.025   0.000  -0.006   0.000  -0.018   0.018   0.000   0.002  -0.000   0.011  -0.007   0.002  -0.026   0.000  -0.003   0.003
 -0.000   0.024  -0.000  -0.014  -0.000   0.000  -0.018  -0.000   0.010   0.000   0.000   0.000   0.000  -0.023  -0.000   0.000
  0.018   0.000   0.004  -0.000   0.004  -0.011   0.000  -0.001   0.000  -0.005   0.004  -0.001  -0.003   0.000  -0.030   0.000
 total augmentation occupancy for first ion, spin component:           2
  0.877  -0.000   0.366  -0.000  -0.875  -0.169  -0.000  -0.269   0.000   0.467   0.012  -0.019   0.016  -0.000  -0.016   0.003
  0.000   2.462  -0.000   0.024   0.000  -0.000  -1.011  -0.000  -0.027   0.000   0.000   0.000  -0.000  -0.044   0.000  -0.000
  0.366  -0.000   1.613  -0.000   0.211  -0.237  -0.000  -0.611   0.000  -0.137  -0.098   0.038   0.007  -0.000  -0.004  -0.004
 -0.000   0.024   0.000   2.490   0.000   0.000  -0.027   0.000  -1.042   0.000   0.000   0.000  -0.000   0.025  -0.000  -0.000
 -0.875   0.000   0.211  -0.000   1.888   0.467  -0.000  -0.155  -0.000  -0.708   0.007  -0.011   0.016   0.000   0.002  -0.003
 -0.169   0.000  -0.237  -0.000   0.467  -0.272   0.000   0.192  -0.000  -0.383  -0.005   0.014  -0.015   0.000   0.007  -0.002
 -0.000  -1.011  -0.000  -0.027   0.000   0.000   0.507   0.000   0.025   0.000   0.000  -0.000  -0.000   0.040   0.000  -0.000
 -0.269  -0.000  -0.611   0.000  -0.155   0.192   0.000  -0.032   0.000   0.111   0.048  -0.017  -0.002  -0.000   0.001   0.003
  0.000  -0.027  -0.000  -1.042   0.000   0.000   0.025  -0.000   0.535   0.000   0.000   0.000  -0.000  -0.023  -0.000  -0.000
  0.467   0.000  -0.137   0.000  -0.708  -0.383  -0.000   0.111  -0.000   0.170  -0.003   0.008  -0.007   0.000   0.006   0.000
  0.012   0.000  -0.098   0.000   0.007  -0.005   0.000   0.048  -0.000  -0.003  -0.262   0.090   0.010  -0.000  -0.006   0.000
 -0.019   0.000   0.038  -0.000  -0.011   0.014   0.000  -0.017   0.000   0.008   0.090  -0.018   0.001   0.000  -0.000  -0.000
  0.016  -0.000   0.007  -0.000   0.016  -0.015   0.000  -0.002  -0.000  -0.007   0.010   0.001  -0.022   0.000   0.003   0.006
 -0.000  -0.044  -0.000   0.025  -0.000  -0.000   0.040   0.000  -0.023   0.000   0.000   0.000   0.000  -0.024  -0.000   0.000
 -0.016   0.000  -0.004  -0.000   0.002   0.007  -0.000   0.001  -0.000   0.006  -0.006  -0.000   0.003   0.000  -0.019   0.000
  0.003  -0.000  -0.004  -0.000  -0.003  -0.002  -0.000   0.003  -0.000   0.000   0.000  -0.000   0.006   0.000   0.000  -0.001
 -0.000   0.010   0.000  -0.006   0.000  -0.000  -0.003  -0.000   0.002  -0.000   0.000   0.000   0.000   0.006   0.000   0.000
  0.003   0.000   0.002   0.000  -0.006  -0.000   0.000  -0.002   0.000   0.002  -0.000   0.000   0.000   0.000   0.007  -0.000


------------------------ aborting loop because EDIFF is reached ----------------------------------------


 


 total charge     
 
# of ion     s       p       d       tot
----------------------------------------
  1        0.367   0.460   6.306   7.134
  2        0.367   0.460   6.306   7.134
  3        0.367   0.457   6.318   7.142
  4        0.369   0.454   6.332   7.156
  5        0.443   0.595   6.564   7.601
  6        0.442   0.598   6.559   7.600
  7        0.443   0.595   6.564   7.601
  8        0.442   0.598   6.559   7.600
  9        0.367   0.457   6.318   7.142
 10        0.369   0.454   6.332   7.156
 11        0.736   0.906   0.000   1.642
 12        0.736   0.906   0.000   1.642
 13        0.734   0.897   0.000   1.632
 14        0.730   0.896   0.000   1.625
 15        0.734   0.897   0.000   1.632
 16        0.730   0.896   0.000   1.625
------------------------------------------------
tot        8.377  10.526  64.160  83.063
 


 magnetization (x)
 
# of ion     s       p       d       tot
----------------------------------------
  1       -0.003  -0.016   2.797   2.778
  2       -0.003  -0.016   2.797   2.778
  3       -0.004  -0.021   2.795   2.770
  4       -0.002  -0.024   2.783   2.757
  5       -0.005  -0.040   2.195   2.149
  6       -0.005  -0.038   2.171   2.128
  7       -0.005  -0.040   2.195   2.149
  8       -0.005  -0.038   2.171   2.128
  9       -0.004  -0.021   2.795   2.770
 10       -0.002  -0.024   2.783   2.757
 11       -0.027  -0.105   0.000  -0.132
 12       -0.027  -0.105   0.000  -0.132
 13       -0.025  -0.109   0.000  -0.134
 14       -0.027  -0.109   0.000  -0.136
 15       -0.025  -0.109   0.000  -0.134
 16       -0.027  -0.109   0.000  -0.136
------------------------------------------------
tot       -0.196  -0.924  25.482  24.362
 
    CHARGE:  cpu time    0.6859: real time    0.6878
    FORLOC:  cpu time    0.0050: real time    0.0054
    FORNL :  cpu time    5.5412: real time    5.5520
    STRESS:  cpu time    6.9269: real time    6.9462
    FORCOR:  cpu time    0.0690: real time    0.0704
    FORHAR:  cpu time    0.0130: real time    0.0120
    MIXING:  cpu time    0.0100: real time    0.0105
    OFIELD:  cpu time    0.0010: real time    0.0006

  FORCE on cell =-STRESS in cart. coord.  units (eV):
  Direction    XX          YY          ZZ          XY          YZ          ZX
  --------------------------------------------------------------------------------------
  Alpha Z   481.89030   481.89030   481.89030
  Ewald   -2159.11286 -2159.11286 -2048.31924     0.00000    -0.00000     0.00000
  Hartree   391.67643   391.67643   513.33849    -0.00000    -0.00000    -0.00000
  E(xc)    -480.80345  -480.80346  -477.97544    -0.00001    -0.00000    -0.00000
  Local     546.42405   546.42393   342.92991    -0.00011    -0.00000     0.00000
  n-local   -73.56269   -73.50694   -67.48975     1.28423    -0.29983    -0.08017
  augment   353.79900   353.79917   339.21516     0.00015     0.00000     0.00000
  Kinetic   938.79111   939.46418   915.84143     1.33896    -0.03673    -0.48661
  Fock        0.00000     0.00000     0.00000     0.00000     0.00000     0.00000
  -------------------------------------------------------------------------------------
  Total      -0.53368    -0.53368    -0.56914     0.00000     0.00000     0.00000
  in kB      -4.33272    -4.33272    -4.62059     0.00000     0.00000     0.00000
  external pressure =       -4.43 kB  Pullay stress =        0.00 kB


 VOLUME and BASIS-vectors are now :
 -----------------------------------------------------------------------------
  energy-cutoff  :      520.00
  volume of cell :      197.35
      direct lattice vectors                 reciprocal lattice vectors
     6.910421036  0.000000000  0.000000000     0.144708983  0.083547770  0.000000000
    -3.455210518  5.984600168  0.000000000     0.000000000  0.167095541  0.000000000
     0.000000000  0.000000000  4.771882571     0.000000000  0.000000000  0.209560899

  length of vectors
     6.910421036  6.910421036  4.771882571     0.167095541  0.167095541  0.209560899


 FORCES acting on ions
    electron-ion (+dipol)            ewald-force                    non-local-force                 convergence-correction
 -----------------------------------------------------------------------------------------------
   -.870E+01 0.151E+02 0.283E-07   0.994E+01 -.172E+02 -.387E-15   -.125E+01 0.217E+01 0.260E-17   0.124E-01 -.214E-01 -.135E-11
   0.870E+01 -.151E+02 -.283E-07   -.994E+01 0.172E+02 0.800E-14   0.125E+01 -.217E+01 -.260E-17   -.124E-01 0.214E-01 0.116E-11
   0.174E+02 -.290E-06 0.283E-07   -.199E+02 0.714E-09 -.595E-14   0.251E+01 0.217E-17 -.173E-17   -.248E-01 0.339E-06 -.943E-12
   0.870E+01 0.151E+02 -.846E-07   -.994E+01 -.172E+02 0.147E-13   0.125E+01 0.217E+01 0.000E+00   -.124E-01 -.214E-01 -.938E-14
   -.120E-06 0.695E-07 -.114E-12   0.124E-08 -.711E-09 0.166E-11   0.802E-17 0.130E-17 -.651E-18   0.420E-07 -.243E-07 0.155E-12
   -.434E-07 0.251E-07 -.133E-11   0.124E-08 -.711E-09 -.166E-11   0.347E-17 0.347E-17 0.163E-18   0.420E-07 -.243E-07 0.963E-13
   0.120E-06 -.695E-07 0.698E-12   -.123E-08 0.717E-09 0.169E-11   -.499E-17 -.477E-17 0.217E-18   -.420E-07 0.243E-07 -.276E-12
   0.434E-07 -.251E-07 0.179E-11   -.123E-08 0.717E-09 -.170E-11   -.173E-17 -.347E-17 -.651E-18   -.420E-07 0.243E-07 -.181E-12
   -.174E+02 0.290E-06 -.283E-07   0.199E+02 -.710E-09 0.157E-15   -.251E+01 -.217E-17 -.520E-17   0.248E-01 -.339E-06 0.727E-12
   -.870E+01 -.151E+02 0.846E-07   0.994E+01 0.172E+02 -.356E-14   -.125E+01 -.217E+01 0.000E+00   0.124E-01 0.214E-01 -.270E-12
   -.197E+01 0.341E+01 -.150E-05   0.228E+01 -.395E+01 -.291E-15   -.319E+00 0.552E+00 -.781E-17   0.526E-02 -.911E-02 0.937E-13
   0.197E+01 -.341E+01 0.150E-05   -.228E+01 0.395E+01 -.136E-14   0.319E+00 -.552E+00 0.867E-18   -.526E-02 0.911E-02 -.828E-13
   0.394E+01 0.360E-05 -.150E-05   -.456E+01 0.345E-09 0.733E-14   0.637E+00 0.520E-17 -.347E-17   -.105E-01 0.460E-07 0.998E-13
   0.197E+01 0.341E+01 0.144E-06   -.228E+01 -.395E+01 0.203E-14   0.319E+00 0.552E+00 0.520E-17   -.526E-02 -.911E-02 0.685E-12
   -.394E+01 -.360E-05 0.150E-05   0.456E+01 -.347E-09 -.369E-14   -.637E+00 0.520E-17 0.347E-17   0.105E-01 -.460E-07 -.914E-13
   -.197E+01 -.341E+01 -.144E-06   0.228E+01 0.395E+01 0.231E-15   -.319E+00 -.552E+00 -.520E-17   0.526E-02 0.911E-02 -.677E-12
 -----------------------------------------------------------------------------------------------
   -.534E-11 0.284E-11 0.129E-10   -.391E-13 -.386E-13 0.655E-14   0.555E-16 0.000E+00 -.148E-16   -.424E-13 0.154E-12 -.862E-12
 
 
 POSITION                                       TOTAL-FORCE (eV/Angst)
 -----------------------------------------------------------------------------------
     -0.80645      1.39681      3.57891        -0.000212      0.000368      0.000000
     -2.64876      4.58779      1.19297         0.000212     -0.000368      0.000000
      1.61289      0.00000      3.57891         0.000424     -0.000000      0.000000
      0.80645      1.39681      1.19297         0.000212      0.000368      0.000000
     -0.00000      3.98973      0.00000        -0.000000     -0.000000      0.000000
     -0.00000      3.98973      2.38594        -0.000000     -0.000000      0.000000
      3.45521      1.99487      0.00000        -0.000000     -0.000000      0.000000
      3.45521      1.99487      2.38594        -0.000000     -0.000000      0.000000
      5.29753      0.00000      1.19297        -0.000424     -0.000000      0.000000
      2.64876      4.58779      3.57891        -0.000212     -0.000368      0.000000
     -1.38968      2.40700      1.19297         0.000633     -0.001096     -0.000000
     -2.06553      3.57760      3.57891        -0.000633      0.001096      0.000000
      2.77937      0.00000      1.19297        -0.001265     -0.000000      0.000000
      1.38968      2.40700      3.57891        -0.000633     -0.001096     -0.000000
      4.13105      0.00000      3.57891         0.001265     -0.000000     -0.000000
      2.06553      3.57760      1.19297         0.000633      0.001096      0.000000
 -----------------------------------------------------------------------------------
    total drift:                               -0.000000      0.000000      0.000000


--------------------------------------------------------------------------------------------------------



  FREE ENERGIE OF THE ION-ELECTRON SYSTEM (eV)
  ---------------------------------------------------
  free  energy   TOTEN  =       -84.14507925 eV

  energy  without entropy=      -84.14017746  energy(sigma->0) =      -84.14262835
 


--------------------------------------------------------------------------------------------------------


    POTLOK:  cpu time    0.2040: real time    0.2057


--------------------------------------------------------------------------------------------------------


     LOOP+:  cpu time  812.8344: real time  815.7719
    4ORBIT:  cpu time    0.0000: real time    0.0000
 


 total charge     
 
# of ion     s       p       d       tot
----------------------------------------
  1        0.367   0.460   6.306   7.134
  2        0.367   0.460   6.306   7.134
  3        0.367   0.457   6.318   7.142
  4        0.369   0.454   6.332   7.156
  5        0.443   0.595   6.564   7.601
  6        0.442   0.598   6.559   7.600
  7        0.443   0.595   6.564   7.601
  8        0.442   0.598   6.559   7.600
  9        0.367   0.457   6.318   7.142
 10        0.369   0.454   6.332   7.156
 11        0.736   0.906   0.000   1.642
 12        0.736   0.906   0.000   1.642
 13        0.734   0.897   0.000   1.632
 14        0.730   0.896   0.000   1.625
 15        0.734   0.897   0.000   1.632
 16        0.730   0.896   0.000   1.625
------------------------------------------------
tot        8.377  10.526  64.160  83.063
 


 magnetization (x)
 
# of ion     s       p       d       tot
----------------------------------------
  1       -0.003  -0.016   2.797   2.778
  2       -0.003  -0.016   2.797   2.778
  3       -0.004  -0.021   2.795   2.770
  4       -0.002  -0.024   2.783   2.757
  5       -0.005  -0.040   2.195   2.149
  6       -0.005  -0.038   2.171   2.128
  7       -0.005  -0.040   2.195   2.149
  8       -0.005  -0.038   2.171   2.128
  9       -0.004  -0.021   2.795   2.770
 10       -0.002  -0.024   2.783   2.757
 11       -0.027  -0.105   0.000  -0.132
 12       -0.027  -0.105   0.000  -0.132
 13       -0.025  -0.109   0.000  -0.134
 14       -0.027  -0.109   0.000  -0.136
 15       -0.025  -0.109   0.000  -0.134
 16       -0.027  -0.109   0.000  -0.136
------------------------------------------------
tot       -0.196  -0.924  25.482  24.362
 

 total amount of memory used by VASP on root node    97376. kBytes
========================================================================

   base      :      30000. kBytes
   nonl-proj :      23463. kBytes
   fftplans  :       6061. kBytes
   grid      :       5380. kBytes
   one-center:        124. kBytes
   wavefun   :      32348. kBytes
 
  
  
 General timing and accounting informations for this job:
 ========================================================
  
                  Total CPU time used (sec):      849.019
                            User time (sec):      824.179
                          System time (sec):       24.840
                         Elapsed time (sec):      853.637
  
                   Maximum memory used (kb):      185440.
                   Average memory used (kb):           0.
  
                          Minor page faults:        90888
                          Major page faults:            1
                 Voluntary context switches:         2636
