 vasp.5.4.1 24Jun15 (build Nov 23 2015 09:58:10) complex                        
  
 executed on             LinuxIFC date 2020.06.18  11:55:42
 running on   24 total cores
 distrk:  each k-point on   24 cores,    1 groups
 distr:  one band on NCORES_PER_BAND=   4 cores,    6 groups


--------------------------------------------------------------------------------------------------------


 INCAR:
 POTCAR:    PAW_PBE O 08Apr2002                   
 POTCAR:    PAW_PBE Zn 06Sep2000                  
 POTCAR:    PAW_PBE O 08Apr2002                   
   VRHFIN =O: s2p4                                                              
   LEXCH  = PE                                                                  
   EATOM  =   432.3788 eV,   31.7789 Ry                                         
                                                                                
   TITEL  = PAW_PBE O 08Apr2002                                                 
   LULTRA =        F    use ultrasoft PP ?                                      
   IUNSCR =        1    unscreen: 0-lin 1-nonlin 2-no                           
   RPACOR =    1.200    partial core radius                                     
   POMASS =   16.000; ZVAL   =    6.000    mass and valenz                      
   RCORE  =    1.520    outmost cutoff radius                                   
   RWIGS  =    1.550; RWIGS  =    0.820    wigner-seitz radius (au A)           
   ENMAX  =  400.000; ENMIN  =  300.000 eV                                      
   ICORE  =        2    local potential                                         
   LCOR   =        T    correct aug charges                                     
   LPAW   =        T    paw PP                                                  
   EAUG   =  605.392                                                            
   DEXC   =    0.000                                                            
   RMAX   =    1.553    core radius for proj-oper                               
   RAUG   =    1.300    factor for augmentation sphere                          
   RDEP   =    1.550    radius for radial grids                                 
   RDEPT  =    1.329    core radius for aug-charge                              
                                                                                
   Atomic configuration                                                         
    4 entries                                                                   
     n  l   j            E        occ.                                          
     1  0  0.50      -514.6923   2.0000                                         
     2  0  0.50       -23.9615   2.0000                                         
     2  1  0.50        -9.0305   4.0000                                         
     3  2  1.50        -9.5241   0.0000                                         
   Description                                                                  
     l       E           TYP  RCUT    TYP  RCUT                                 
     0    -23.9615318     23  1.200                                             
     0     -9.5240782     23  1.200                                             
     1     -9.0304911     23  1.520                                             
     1      8.1634956     23  1.520                                             
     2     -9.5240782      7  1.500                                             
  local pseudopotential read in
  partial core-charges read in
  partial kinetic energy density read in
  kinetic energy density of atom read in
  atomic valenz-charges read in
  non local Contribution for L=           0  read in
    real space projection operators read in
  non local Contribution for L=           0  read in
    real space projection operators read in
  non local Contribution for L=           1  read in
    real space projection operators read in
  non local Contribution for L=           1  read in
    real space projection operators read in
    PAW grid and wavefunctions read in
 
   number of l-projection  operators is LMAX  =           4
   number of lm-projection operators is LMMAX =           8
 
 POTCAR:    PAW_PBE Zn 06Sep2000                  
   VRHFIN =Zn: d10 p2                                                           
   LEXCH  = PE                                                                  
   EATOM  =  1748.8345 eV,  128.5357 Ry                                         
                                                                                
   TITEL  = PAW_PBE Zn 06Sep2000                                                
   LULTRA =        F    use ultrasoft PP ?                                      
   IUNSCR =        1    unscreen: 0-lin 1-nonlin 2-no                           
   RPACOR =    2.000    partial core radius                                     
   POMASS =   65.390; ZVAL   =   12.000    mass and valenz                      
   RCORE  =    2.300    outmost cutoff radius                                   
   RWIGS  =    2.400; RWIGS  =    1.270    wigner-seitz radius (au A)           
   ENMAX  =  276.723; ENMIN  =  207.542 eV                                      
   RCLOC  =    1.828    cutoff for local pot                                    
   LCOR   =        T    correct aug charges                                     
   LPAW   =        T    paw PP                                                  
   EAUG   =  575.892                                                            
   DEXC   =    0.000                                                            
   RMAX   =    2.347    core radius for proj-oper                               
   RAUG   =    1.300    factor for augmentation sphere                          
   RDEP   =    2.324    radius for radial grids                                 
   RDEPT  =    1.788    core radius for aug-charge                              
                                                                                
   Atomic configuration                                                         
    9 entries                                                                   
     n  l   j            E        occ.                                          
     1  0  0.50     -9524.6913   2.0000                                         
     2  0  0.50     -1158.1882   2.0000                                         
     2  1  1.50     -1003.8506   6.0000                                         
     3  0  0.50      -129.2194   2.0000                                         
     3  1  1.50       -83.3890   6.0000                                         
     3  2  2.50       -10.1410  10.0000                                         
     4  0  0.50        -5.9785   2.0000                                         
     4  1  0.50        -4.0817   0.0000                                         
     4  3  2.50        -1.3606   0.0000                                         
   Description                                                                  
     l       E           TYP  RCUT    TYP  RCUT                                 
     2    -10.1410010     23  2.300                                             
     2    -11.5015836     23  2.300                                             
     0     -5.9785163     23  2.300                                             
     0      1.1858015     23  2.300                                             
     1     -2.7211652     23  2.300                                             
     1     13.2444212     23  2.300                                             
  local pseudopotential read in
  partial core-charges read in
  partial kinetic energy density read in
  atomic valenz-charges read in
  non local Contribution for L=           2  read in
    real space projection operators read in
  non local Contribution for L=           2  read in
    real space projection operators read in
  non local Contribution for L=           0  read in
    real space projection operators read in
  non local Contribution for L=           0  read in
    real space projection operators read in
  non local Contribution for L=           1  read in
    real space projection operators read in
  non local Contribution for L=           1  read in
    real space projection operators read in
    PAW grid and wavefunctions read in
 
   number of l-projection  operators is LMAX  =           6
   number of lm-projection operators is LMMAX =          18
 
  PAW_PBE O 08Apr2002                   :
 energy of atom  1       EATOM= -432.3788
 kinetic energy error for atom=    0.0208 (will be added to EATOM!!)
  PAW_PBE Zn 06Sep2000                  :
 energy of atom  2       EATOM=-1748.8345
 kinetic energy error for atom=    0.0029 (will be added to EATOM!!)
 
 
 POSCAR: O1 Zn1                                  
  positions in direct lattice
  velocities in cartesian coordinates
 exchange correlation table for  LEXCH =        8
   RHO(1)=    0.500       N(1)  =     2000
   RHO(2)=  100.500       N(2)  =     4000
 


--------------------------------------------------------------------------------------------------------


 ion  position               nearest neighbor table
   1  0.750  0.750  0.750-   2 1.94   2 1.94   2 1.94   2 1.94
   2  0.000  0.000  0.000-   1 1.94   1 1.94   1 1.94   1 1.94
 
  LATTYP: Found a face centered cubic cell.
 ALAT       =     4.4828280020
  
  Lattice vectors:
  
 A1 = (   0.0000000000,   2.2414140010,   2.2414140010)
 A2 = (   2.2414140010,   0.0000000000,   2.2414140010)
 A3 = (   2.2414140010,   2.2414140010,   0.0000000000)


Analysis of symmetry for initial positions (statically):
=====================================================================
 Subroutine PRICEL returns:
 Original cell was already a primitive cell.
 

 Routine SETGRP: Setting up the symmetry group for a 
 face centered cubic supercell.


 Subroutine GETGRP returns: Found 24 space group operations
 (whereof 24 operations were pure point group operations)
 out of a pool of 48 trial point group operations.


The static configuration has the point symmetry T_d .


Analysis of symmetry for dynamics (positions and initial velocities):
=====================================================================
 Subroutine PRICEL returns:
 Original cell was already a primitive cell.
 

 Routine SETGRP: Setting up the symmetry group for a 
 face centered cubic supercell.


 Subroutine GETGRP returns: Found 24 space group operations
 (whereof 24 operations were pure point group operations)
 out of a pool of 48 trial point group operations.


The dynamic configuration has the point symmetry T_d .
 
 
 KPOINTS: K-Mesh                                  

Automatic generation of k-mesh.
Space group operators:
 irot       det(A)        alpha          n_x          n_y          n_z        tau_x        tau_y        tau_z
    1     1.000000     0.000001     1.000000     0.000000     0.000000     0.000000     0.000000     0.000000
    2     1.000000   120.000000    -0.577350    -0.577350    -0.577350     0.000000     0.000000     0.000000
    3     1.000000   120.000000     0.577350     0.577350     0.577350     0.000000     0.000000     0.000000
    4    -1.000000    90.000000     0.000000     0.000000    -1.000000     0.000000     0.000000     0.000000
    5    -1.000000   180.000000     0.000000     0.707107     0.707107     0.000000     0.000000     0.000000
    6    -1.000000    90.000000     0.000000     1.000000     0.000000     0.000000     0.000000     0.000000
    7     1.000000   180.000000     0.000000     0.000000     1.000000     0.000000     0.000000     0.000000
    8     1.000000   120.000000    -0.577350     0.577350     0.577350     0.000000     0.000000     0.000000
    9     1.000000   120.000000    -0.577350     0.577350    -0.577350     0.000000     0.000000     0.000000
   10    -1.000000    90.000000     0.000000     0.000000     1.000000     0.000000     0.000000     0.000000
   11    -1.000000    90.000000    -1.000000     0.000000     0.000000     0.000000     0.000000     0.000000
   12    -1.000000   180.000000     0.707107     0.000000     0.707107     0.000000     0.000000     0.000000
   13     1.000000   120.000000     0.577350    -0.577350     0.577350     0.000000     0.000000     0.000000
   14     1.000000   120.000000    -0.577350    -0.577350     0.577350     0.000000     0.000000     0.000000
   15     1.000000   180.000000     1.000000     0.000000     0.000000     0.000000     0.000000     0.000000
   16    -1.000000    90.000000     0.000000    -1.000000     0.000000     0.000000     0.000000     0.000000
   17    -1.000000   180.000000     0.707107     0.707107     0.000000     0.000000     0.000000     0.000000
   18    -1.000000    90.000000     1.000000     0.000000     0.000000     0.000000     0.000000     0.000000
   19     1.000000   120.000000     0.577350    -0.577350    -0.577350     0.000000     0.000000     0.000000
   20     1.000000   180.000000     0.000000     1.000000     0.000000     0.000000     0.000000     0.000000
   21     1.000000   120.000000     0.577350     0.577350    -0.577350     0.000000     0.000000     0.000000
   22    -1.000000   180.000000     0.000000    -0.707107     0.707107     0.000000     0.000000     0.000000
   23    -1.000000   180.000000     0.707107    -0.707107     0.000000     0.000000     0.000000     0.000000
   24    -1.000000   180.000000     0.707107     0.000000    -0.707107     0.000000     0.000000     0.000000
 
 Subroutine IBZKPT returns following result:
 ===========================================
 
 Found    220 irreducible k-points:
 
 Following reciprocal coordinates:
            Coordinates               Weight
  0.000000  0.000000  0.000000      1.000000
  0.052632  0.000000  0.000000      8.000000
  0.105263  0.000000  0.000000      8.000000
  0.157895  0.000000  0.000000      8.000000
  0.210526  0.000000  0.000000      8.000000
  0.263158  0.000000  0.000000      8.000000
  0.315789  0.000000  0.000000      8.000000
  0.368421  0.000000  0.000000      8.000000
  0.421053  0.000000  0.000000      8.000000
  0.473684  0.000000  0.000000      8.000000
  0.052632  0.052632  0.000000      6.000000
  0.105263  0.052632  0.000000     24.000000
  0.157895  0.052632  0.000000     24.000000
  0.210526  0.052632  0.000000     24.000000
  0.263158  0.052632  0.000000     24.000000
  0.315789  0.052632  0.000000     24.000000
  0.368421  0.052632  0.000000     24.000000
  0.421053  0.052632  0.000000     24.000000
  0.473684  0.052632  0.000000     24.000000
 -0.473684  0.052632  0.000000     24.000000
 -0.421053  0.052632  0.000000     24.000000
 -0.368421  0.052632  0.000000     24.000000
 -0.315789  0.052632  0.000000     24.000000
 -0.263158  0.052632  0.000000     24.000000
 -0.210526  0.052632  0.000000     24.000000
 -0.157895  0.052632  0.000000     24.000000
 -0.105263  0.052632  0.000000     24.000000
 -0.052632  0.052632  0.000000     12.000000
  0.105263  0.105263  0.000000      6.000000
  0.157895  0.105263  0.000000     24.000000
  0.210526  0.105263  0.000000     24.000000
  0.263158  0.105263  0.000000     24.000000
  0.315789  0.105263  0.000000     24.000000
  0.368421  0.105263  0.000000     24.000000
  0.421053  0.105263  0.000000     24.000000
  0.473684  0.105263  0.000000     24.000000
 -0.473684  0.105263  0.000000     24.000000
 -0.421053  0.105263  0.000000     24.000000
 -0.368421  0.105263  0.000000     24.000000
 -0.315789  0.105263  0.000000     24.000000
 -0.263158  0.105263  0.000000     24.000000
 -0.210526  0.105263  0.000000     24.000000
 -0.157895  0.105263  0.000000     24.000000
 -0.105263  0.105263  0.000000     12.000000
  0.157895  0.157895  0.000000      6.000000
  0.210526  0.157895  0.000000     24.000000
  0.263158  0.157895  0.000000     24.000000
  0.315789  0.157895  0.000000     24.000000
  0.368421  0.157895  0.000000     24.000000
  0.421053  0.157895  0.000000     24.000000
  0.473684  0.157895  0.000000     24.000000
 -0.473684  0.157895  0.000000     24.000000
 -0.421053  0.157895  0.000000     24.000000
 -0.368421  0.157895  0.000000     24.000000
 -0.315789  0.157895  0.000000     24.000000
 -0.263158  0.157895  0.000000     24.000000
 -0.210526  0.157895  0.000000     24.000000
 -0.157895  0.157895  0.000000     12.000000
  0.210526  0.210526  0.000000      6.000000
  0.263158  0.210526  0.000000     24.000000
  0.315789  0.210526  0.000000     24.000000
  0.368421  0.210526  0.000000     24.000000
  0.421053  0.210526  0.000000     24.000000
  0.473684  0.210526  0.000000     24.000000
 -0.473684  0.210526  0.000000     24.000000
 -0.421053  0.210526  0.000000     24.000000
 -0.368421  0.210526  0.000000     24.000000
 -0.315789  0.210526  0.000000     24.000000
 -0.263158  0.210526  0.000000     24.000000
 -0.210526  0.210526  0.000000     12.000000
  0.263158  0.263158  0.000000      6.000000
  0.315789  0.263158  0.000000     24.000000
  0.368421  0.263158  0.000000     24.000000
  0.421053  0.263158  0.000000     24.000000
  0.473684  0.263158  0.000000     24.000000
 -0.473684  0.263158  0.000000     24.000000
 -0.421053  0.263158  0.000000     24.000000
 -0.368421  0.263158  0.000000     24.000000
 -0.315789  0.263158  0.000000     24.000000
 -0.263158  0.263158  0.000000     12.000000
  0.315789  0.315789  0.000000      6.000000
  0.368421  0.315789  0.000000     24.000000
  0.421053  0.315789  0.000000     24.000000
  0.473684  0.315789  0.000000     24.000000
 -0.473684  0.315789  0.000000     24.000000
 -0.421053  0.315789  0.000000     24.000000
 -0.368421  0.315789  0.000000     24.000000
 -0.315789  0.315789  0.000000     12.000000
  0.368421  0.368421  0.000000      6.000000
  0.421053  0.368421  0.000000     24.000000
  0.473684  0.368421  0.000000     24.000000
 -0.473684  0.368421  0.000000     24.000000
 -0.421053  0.368421  0.000000     24.000000
 -0.368421  0.368421  0.000000     12.000000
  0.421053  0.421053  0.000000      6.000000
  0.473684  0.421053  0.000000     24.000000
 -0.473684  0.421053  0.000000     24.000000
 -0.421053  0.421053  0.000000     12.000000
  0.473684  0.473684  0.000000      6.000000
 -0.473684  0.473684  0.000000     12.000000
  0.157895  0.105263  0.052632     24.000000
  0.210526  0.105263  0.052632     48.000000
  0.263158  0.105263  0.052632     48.000000
  0.315789  0.105263  0.052632     48.000000
  0.368421  0.105263  0.052632     48.000000
  0.421053  0.105263  0.052632     48.000000
  0.473684  0.105263  0.052632     48.000000
 -0.473684  0.105263  0.052632     48.000000
  0.210526  0.157895  0.052632     24.000000
  0.263158  0.157895  0.052632     48.000000
  0.315789  0.157895  0.052632     48.000000
  0.368421  0.157895  0.052632     48.000000
  0.421053  0.157895  0.052632     48.000000
  0.473684  0.157895  0.052632     48.000000
 -0.473684  0.157895  0.052632     48.000000
 -0.421053  0.157895  0.052632     48.000000
 -0.368421  0.157895  0.052632     48.000000
 -0.315789  0.157895  0.052632     48.000000
 -0.263158  0.157895  0.052632     48.000000
 -0.210526  0.157895  0.052632     48.000000
 -0.157895  0.157895  0.052632     48.000000
 -0.105263  0.157895  0.052632     24.000000
  0.263158  0.210526  0.052632     24.000000
  0.315789  0.210526  0.052632     48.000000
  0.368421  0.210526  0.052632     48.000000
  0.421053  0.210526  0.052632     48.000000
  0.473684  0.210526  0.052632     48.000000
 -0.473684  0.210526  0.052632     48.000000
 -0.421053  0.210526  0.052632     48.000000
 -0.368421  0.210526  0.052632     48.000000
 -0.315789  0.210526  0.052632     48.000000
 -0.263158  0.210526  0.052632     48.000000
 -0.210526  0.210526  0.052632     48.000000
 -0.157895  0.210526  0.052632     24.000000
  0.315789  0.263158  0.052632     24.000000
  0.368421  0.263158  0.052632     48.000000
  0.421053  0.263158  0.052632     48.000000
  0.473684  0.263158  0.052632     48.000000
 -0.473684  0.263158  0.052632     48.000000
 -0.421053  0.263158  0.052632     48.000000
 -0.368421  0.263158  0.052632     48.000000
 -0.315789  0.263158  0.052632     48.000000
 -0.263158  0.263158  0.052632     48.000000
 -0.210526  0.263158  0.052632     24.000000
  0.368421  0.315789  0.052632     24.000000
  0.421053  0.315789  0.052632     48.000000
  0.473684  0.315789  0.052632     48.000000
 -0.473684  0.315789  0.052632     48.000000
 -0.421053  0.315789  0.052632     48.000000
 -0.368421  0.315789  0.052632     48.000000
 -0.315789  0.315789  0.052632     48.000000
 -0.263158  0.315789  0.052632     24.000000
  0.421053  0.368421  0.052632     24.000000
  0.473684  0.368421  0.052632     48.000000
 -0.473684  0.368421  0.052632     48.000000
 -0.421053  0.368421  0.052632     48.000000
 -0.368421  0.368421  0.052632     48.000000
 -0.315789  0.368421  0.052632     24.000000
  0.473684  0.421053  0.052632     24.000000
 -0.473684  0.421053  0.052632     48.000000
 -0.421053  0.421053  0.052632     48.000000
 -0.368421  0.421053  0.052632     24.000000
 -0.473684  0.473684  0.052632     24.000000
 -0.421053  0.473684  0.052632     24.000000
  0.315789  0.210526  0.105263     24.000000
  0.368421  0.210526  0.105263     48.000000
  0.421053  0.210526  0.105263     48.000000
  0.473684  0.210526  0.105263     48.000000
 -0.473684  0.210526  0.105263     48.000000
 -0.421053  0.210526  0.105263     48.000000
  0.368421  0.263158  0.105263     24.000000
  0.421053  0.263158  0.105263     48.000000
  0.473684  0.263158  0.105263     48.000000
 -0.473684  0.263158  0.105263     48.000000
 -0.421053  0.263158  0.105263     48.000000
 -0.368421  0.263158  0.105263     48.000000
 -0.315789  0.263158  0.105263     48.000000
 -0.263158  0.263158  0.105263     48.000000
 -0.210526  0.263158  0.105263     48.000000
 -0.157895  0.263158  0.105263     24.000000
  0.421053  0.315789  0.105263     24.000000
  0.473684  0.315789  0.105263     48.000000
 -0.473684  0.315789  0.105263     48.000000
 -0.421053  0.315789  0.105263     48.000000
 -0.368421  0.315789  0.105263     48.000000
 -0.315789  0.315789  0.105263     48.000000
 -0.263158  0.315789  0.105263     48.000000
 -0.210526  0.315789  0.105263     24.000000
  0.473684  0.368421  0.105263     24.000000
 -0.473684  0.368421  0.105263     48.000000
 -0.421053  0.368421  0.105263     48.000000
 -0.368421  0.368421  0.105263     48.000000
 -0.315789  0.368421  0.105263     48.000000
 -0.263158  0.368421  0.105263     24.000000
 -0.473684  0.421053  0.105263     24.000000
 -0.421053  0.421053  0.105263     48.000000
 -0.368421  0.421053  0.105263     48.000000
 -0.315789  0.421053  0.105263     24.000000
 -0.421053  0.473684  0.105263     24.000000
 -0.368421  0.473684  0.105263     24.000000
  0.473684  0.315789  0.157895     24.000000
 -0.473684  0.315789  0.157895     48.000000
 -0.421053  0.315789  0.157895     48.000000
 -0.368421  0.315789  0.157895     48.000000
 -0.473684  0.368421  0.157895     24.000000
 -0.421053  0.368421  0.157895     48.000000
 -0.368421  0.368421  0.157895     48.000000
 -0.315789  0.368421  0.157895     48.000000
 -0.263158  0.368421  0.157895     48.000000
 -0.210526  0.368421  0.157895     24.000000
 -0.421053  0.421053  0.157895     24.000000
 -0.368421  0.421053  0.157895     48.000000
 -0.315789  0.421053  0.157895     48.000000
 -0.263158  0.421053  0.157895     24.000000
 -0.368421  0.473684  0.157895     24.000000
 -0.315789  0.473684  0.157895     24.000000
 -0.368421  0.421053  0.210526     24.000000
 -0.315789  0.421053  0.210526     48.000000
 -0.315789  0.473684  0.210526     24.000000
 -0.263158  0.473684  0.210526     24.000000
 
 Following cartesian coordinates:
            Coordinates               Weight
  0.000000  0.000000  0.000000      1.000000
 -0.011741  0.011741  0.011741      8.000000
 -0.023481  0.023481  0.023481      8.000000
 -0.035222  0.035222  0.035222      8.000000
 -0.046963  0.046963  0.046963      8.000000
 -0.058704  0.058704  0.058704      8.000000
 -0.070444  0.070444  0.070444      8.000000
 -0.082185  0.082185  0.082185      8.000000
 -0.093926  0.093926  0.093926      8.000000
 -0.105666  0.105666  0.105666      8.000000
  0.000000  0.000000  0.023481      6.000000
 -0.011741  0.011741  0.035222     24.000000
 -0.023481  0.023481  0.046963     24.000000
 -0.035222  0.035222  0.058704     24.000000
 -0.046963  0.046963  0.070444     24.000000
 -0.058704  0.058704  0.082185     24.000000
 -0.070444  0.070444  0.093926     24.000000
 -0.082185  0.082185  0.105666     24.000000
 -0.093926  0.093926  0.117407     24.000000
  0.117407 -0.117407 -0.093926     24.000000
  0.105666 -0.105666 -0.082185     24.000000
  0.093926 -0.093926 -0.070444     24.000000
  0.082185 -0.082185 -0.058704     24.000000
  0.070444 -0.070444 -0.046963     24.000000
  0.058704 -0.058704 -0.035222     24.000000
  0.046963 -0.046963 -0.023481     24.000000
  0.035222 -0.035222 -0.011741     24.000000
  0.023481 -0.023481  0.000000     12.000000
  0.000000  0.000000  0.046963      6.000000
 -0.011741  0.011741  0.058704     24.000000
 -0.023481  0.023481  0.070444     24.000000
 -0.035222  0.035222  0.082185     24.000000
 -0.046963  0.046963  0.093926     24.000000
 -0.058704  0.058704  0.105666     24.000000
 -0.070444  0.070444  0.117407     24.000000
 -0.082185  0.082185  0.129148     24.000000
  0.129148 -0.129148 -0.082185     24.000000
  0.117407 -0.117407 -0.070444     24.000000
  0.105666 -0.105666 -0.058704     24.000000
  0.093926 -0.093926 -0.046963     24.000000
  0.082185 -0.082185 -0.035222     24.000000
  0.070444 -0.070444 -0.023481     24.000000
  0.058704 -0.058704 -0.011741     24.000000
  0.046963 -0.046963  0.000000     12.000000
  0.000000  0.000000  0.070444      6.000000
 -0.011741  0.011741  0.082185     24.000000
 -0.023481  0.023481  0.093926     24.000000
 -0.035222  0.035222  0.105666     24.000000
 -0.046963  0.046963  0.117407     24.000000
 -0.058704  0.058704  0.129148     24.000000
 -0.070444  0.070444  0.140889     24.000000
  0.140889 -0.140889 -0.070444     24.000000
  0.129148 -0.129148 -0.058704     24.000000
  0.117407 -0.117407 -0.046963     24.000000
  0.105666 -0.105666 -0.035222     24.000000
  0.093926 -0.093926 -0.023481     24.000000
  0.082185 -0.082185 -0.011741     24.000000
  0.070444 -0.070444  0.000000     12.000000
  0.000000  0.000000  0.093926      6.000000
 -0.011741  0.011741  0.105666     24.000000
 -0.023481  0.023481  0.117407     24.000000
 -0.035222  0.035222  0.129148     24.000000
 -0.046963  0.046963  0.140889     24.000000
 -0.058704  0.058704  0.152629     24.000000
  0.152629 -0.152629 -0.058704     24.000000
  0.140889 -0.140889 -0.046963     24.000000
  0.129148 -0.129148 -0.035222     24.000000
  0.117407 -0.117407 -0.023481     24.000000
  0.105666 -0.105666 -0.011741     24.000000
  0.093926 -0.093926  0.000000     12.000000
  0.000000  0.000000  0.117407      6.000000
 -0.011741  0.011741  0.129148     24.000000
 -0.023481  0.023481  0.140889     24.000000
 -0.035222  0.035222  0.152629     24.000000
 -0.046963  0.046963  0.164370     24.000000
  0.164370 -0.164370 -0.046963     24.000000
  0.152629 -0.152629 -0.035222     24.000000
  0.140889 -0.140889 -0.023481     24.000000
  0.129148 -0.129148 -0.011741     24.000000
  0.117407 -0.117407  0.000000     12.000000
  0.000000  0.000000  0.140889      6.000000
 -0.011741  0.011741  0.152629     24.000000
 -0.023481  0.023481  0.164370     24.000000
 -0.035222  0.035222  0.176111     24.000000
  0.176111 -0.176111 -0.035222     24.000000
  0.164370 -0.164370 -0.023481     24.000000
  0.152629 -0.152629 -0.011741     24.000000
  0.140889 -0.140889  0.000000     12.000000
  0.000000  0.000000  0.164370      6.000000
 -0.011741  0.011741  0.176111     24.000000
 -0.023481  0.023481  0.187851     24.000000
  0.187851 -0.187851 -0.023481     24.000000
  0.176111 -0.176111 -0.011741     24.000000
  0.164370 -0.164370  0.000000     12.000000
  0.000000  0.000000  0.187851      6.000000
 -0.011741  0.011741  0.199592     24.000000
  0.199592 -0.199592 -0.011741     24.000000
  0.187851 -0.187851 -0.000000     12.000000
  0.000000  0.000000  0.211333      6.000000
  0.211333 -0.211333  0.000000     12.000000
  0.000000  0.023481  0.046963     24.000000
 -0.011741  0.035222  0.058704     48.000000
 -0.023481  0.046963  0.070444     48.000000
 -0.035222  0.058704  0.082185     48.000000
 -0.046963  0.070444  0.093926     48.000000
 -0.058704  0.082185  0.105666     48.000000
 -0.070444  0.093926  0.117407     48.000000
  0.140889 -0.117407 -0.093926     48.000000
  0.000000  0.023481  0.070444     24.000000
 -0.011741  0.035222  0.082185     48.000000
 -0.023481  0.046963  0.093926     48.000000
 -0.035222  0.058704  0.105666     48.000000
 -0.046963  0.070444  0.117407     48.000000
 -0.058704  0.082185  0.129148     48.000000
  0.152629 -0.129148 -0.082185     48.000000
  0.140889 -0.117407 -0.070444     48.000000
  0.129148 -0.105666 -0.058704     48.000000
  0.117407 -0.093926 -0.046963     48.000000
  0.105666 -0.082185 -0.035222     48.000000
  0.093926 -0.070444 -0.023481     48.000000
  0.082185 -0.058704 -0.011741     48.000000
  0.070444 -0.046963  0.000000     24.000000
 -0.000000  0.023481  0.093926     24.000000
 -0.011741  0.035222  0.105666     48.000000
 -0.023481  0.046963  0.117407     48.000000
 -0.035222  0.058704  0.129148     48.000000
 -0.046963  0.070444  0.140889     48.000000
  0.164370 -0.140889 -0.070444     48.000000
  0.152629 -0.129148 -0.058704     48.000000
  0.140889 -0.117407 -0.046963     48.000000
  0.129148 -0.105666 -0.035222     48.000000
  0.117407 -0.093926 -0.023481     48.000000
  0.105666 -0.082185 -0.011741     48.000000
  0.093926 -0.070444  0.000000     24.000000
  0.000000  0.023481  0.117407     24.000000
 -0.011741  0.035222  0.129148     48.000000
 -0.023481  0.046963  0.140889     48.000000
 -0.035222  0.058704  0.152629     48.000000
  0.176111 -0.152629 -0.058704     48.000000
  0.164370 -0.140889 -0.046963     48.000000
  0.152629 -0.129148 -0.035222     48.000000
  0.140889 -0.117407 -0.023481     48.000000
  0.129148 -0.105666 -0.011741     48.000000
  0.117407 -0.093926  0.000000     24.000000
  0.000000  0.023481  0.140889     24.000000
 -0.011741  0.035222  0.152629     48.000000
 -0.023481  0.046963  0.164370     48.000000
  0.187851 -0.164370 -0.046963     48.000000
  0.176111 -0.152629 -0.035222     48.000000
  0.164370 -0.140889 -0.023481     48.000000
  0.152629 -0.129148 -0.011741     48.000000
  0.140889 -0.117407  0.000000     24.000000
 -0.000000  0.023481  0.164370     24.000000
 -0.011741  0.035222  0.176111     48.000000
  0.199592 -0.176111 -0.035222     48.000000
  0.187851 -0.164370 -0.023481     48.000000
  0.176111 -0.152629 -0.011741     48.000000
  0.164370 -0.140889  0.000000     24.000000
  0.000000  0.023481  0.187851     24.000000
  0.211333 -0.187851 -0.023481     48.000000
  0.199592 -0.176111 -0.011741     48.000000
  0.187851 -0.164370  0.000000     24.000000
  0.223073 -0.199592 -0.011741     24.000000
  0.211333 -0.187851  0.000000     24.000000
  0.000000  0.046963  0.093926     24.000000
 -0.011741  0.058704  0.105666     48.000000
 -0.023481  0.070444  0.117407     48.000000
 -0.035222  0.082185  0.129148     48.000000
  0.176111 -0.129148 -0.082185     48.000000
  0.164370 -0.117407 -0.070444     48.000000
  0.000000  0.046963  0.117407     24.000000
 -0.011741  0.058704  0.129148     48.000000
 -0.023481  0.070444  0.140889     48.000000
  0.187851 -0.140889 -0.070444     48.000000
  0.176111 -0.129148 -0.058704     48.000000
  0.164370 -0.117407 -0.046963     48.000000
  0.152629 -0.105666 -0.035222     48.000000
  0.140889 -0.093926 -0.023481     48.000000
  0.129148 -0.082185 -0.011741     48.000000
  0.117407 -0.070444  0.000000     24.000000
  0.000000  0.046963  0.140889     24.000000
 -0.011741  0.058704  0.152629     48.000000
  0.199592 -0.152629 -0.058704     48.000000
  0.187851 -0.140889 -0.046963     48.000000
  0.176111 -0.129148 -0.035222     48.000000
  0.164370 -0.117407 -0.023481     48.000000
  0.152629 -0.105666 -0.011741     48.000000
  0.140889 -0.093926  0.000000     24.000000
  0.000000  0.046963  0.164370     24.000000
  0.211333 -0.164370 -0.046963     48.000000
  0.199592 -0.152629 -0.035222     48.000000
  0.187851 -0.140889 -0.023481     48.000000
  0.176111 -0.129148 -0.011741     48.000000
  0.164370 -0.117407 -0.000000     24.000000
  0.223073 -0.176111 -0.035222     24.000000
  0.211333 -0.164370 -0.023481     48.000000
  0.199592 -0.152629 -0.011741     48.000000
  0.187851 -0.140889  0.000000     24.000000
  0.223073 -0.176111 -0.011741     24.000000
  0.211333 -0.164370  0.000000     24.000000
  0.000000  0.070444  0.140889     24.000000
  0.211333 -0.140889 -0.070444     48.000000
  0.199592 -0.129148 -0.058704     48.000000
  0.187851 -0.117407 -0.046963     48.000000
  0.223073 -0.152629 -0.058704     24.000000
  0.211333 -0.140889 -0.046963     48.000000
  0.199592 -0.129148 -0.035222     48.000000
  0.187851 -0.117407 -0.023481     48.000000
  0.176111 -0.105666 -0.011741     48.000000
  0.164370 -0.093926  0.000000     24.000000
  0.223073 -0.152629 -0.035222     24.000000
  0.211333 -0.140889 -0.023481     48.000000
  0.199592 -0.129148 -0.011741     48.000000
  0.187851 -0.117407  0.000000     24.000000
  0.223073 -0.152629 -0.011741     24.000000
  0.211333 -0.140889  0.000000     24.000000
  0.223073 -0.129148 -0.035222     24.000000
  0.211333 -0.117407 -0.023481     48.000000
  0.223073 -0.129148 -0.011741     24.000000
  0.211333 -0.117407  0.000000     24.000000
 


--------------------------------------------------------------------------------------------------------




 Dimension of arrays:
   k-points           NKPTS =    220   k-points in BZ     NKDIM =    220   number of bands    NBANDS=     18
   number of dos      NEDOS =    301   number of ions     NIONS =      2
   non local maximal  LDIM  =      6   non local SUM 2l+1 LMDIM =     18
   total plane-waves  NPLWV =  13824
   max r-space proj   IRMAX =      1   max aug-charges    IRDMAX= 146546
   dimension x,y,z NGX =    24 NGY =   24 NGZ =   24
   dimension x,y,z NGXF=    48 NGYF=   48 NGZF=   48
   support grid    NGXF=    96 NGYF=   96 NGZF=   96
   ions per type =               1   1
 NGX,Y,Z   is equivalent  to a cutoff of  12.59, 12.59, 12.59 a.u.
 NGXF,Y,Z  is equivalent  to a cutoff of  25.17, 25.17, 25.17 a.u.


 I would recommend the setting:
   dimension x,y,z NGX =    24 NGY =   24 NGZ =   24
 SYSTEM =  matgen-scf                              
 POSCAR =  O1 Zn1                                  

 Startparameter for this run:
   NWRITE =      2    write-flag & timer
   PREC   = accura    normal or accurate (medium, high low for compatibility)
   ISTART =      0    job   : 0-new  1-cont  2-samecut
   ICHARG =      2    charge: 1-file 2-atom 10-const
   ISPIN  =      1    spin polarized calculation?
   LNONCOLLINEAR =      F non collinear calculations
   LSORBIT =      F    spin-orbit coupling
   INIWAV =      1    electr: 0-lowe 1-rand  2-diag
   LASPH  =      F    aspherical Exc in radial PAW
   METAGGA=      F    non-selfconsistent MetaGGA calc.

 Electronic Relaxation 1
   ENCUT  =  520.0 eV  38.22 Ry    6.18 a.u.   5.89  5.89  5.89*2*pi/ulx,y,z
   ENINI  =  520.0     initial cutoff
   ENAUG  =  605.4 eV  augmentation charge cutoff
   NELM   =    140;   NELMIN=  6; NELMDL= -5     # of ELM steps 
   EDIFF  = 0.1E-03   stopping-criterion for ELM
   LREAL  =      F    real-space projection
   NLSPLINE    = F    spline interpolate recip. space projectors
   LCOMPAT=      F    compatible to vasp.4.4
   GGA_COMPAT  = T    GGA compatible to vasp.4.4-vasp.4.6
   LMAXPAW     = -100 max onsite density
   LMAXMIX     =    4 max onsite mixed and CHGCAR
   VOSKOWN=      0    Vosko Wilk Nusair interpolation
   ROPT   =    0.00000   0.00000
 Ionic relaxation
   EDIFFG = -.1E-01   stopping-criterion for IOM
   NSW    =      0    number of steps for IOM
   NBLOCK =      1;   KBLOCK =      1    inner block; outer block 
   IBRION =     -1    ionic relax: 0-MD 1-quasi-New 2-CG
   NFREE  =      0    steps in history (QN), initial steepest desc. (CG)
   ISIF   =      2    stress and relaxation
   IWAVPR =     10    prediction:  0-non 1-charg 2-wave 3-comb
   ISYM   =      2    0-nonsym 1-usesym 2-fastsym
   LCORR  =      T    Harris-Foulkes like correction to forces

   POTIM  = 0.0500    time-step for ionic-motion
   TEIN   =    0.0    initial temperature
   TEBEG  =    0.0;   TEEND  =   0.0 temperature during run
   SMASS  =  -3.00    Nose mass-parameter (am)
   estimated Nose-frequenzy (Omega)   =  0.10E-29 period in steps =****** mass=  -0.230E-27a.u.
   SCALEE = 1.0000    scale energy and forces
   NPACO  =    256;   APACO  = 16.0  distance and # of slots for P.C.
   PSTRESS=    0.0 pullay stress

  Mass of Ions in am
   POMASS =  16.00 65.39
  Ionic Valenz
   ZVAL   =   6.00 12.00
  Atomic Wigner-Seitz radii
   RWIGS  =  -1.00 -1.00
  virtual crystal weights 
   VCA    =   1.00  1.00
   NELECT =      18.0000    total number of electrons
   NUPDOWN=      -1.0000    fix difference up-down

 DOS related values:
   EMIN   =  10.00;   EMAX   =-10.00  energy-range for DOS
   EFERMI =   0.00
   ISMEAR =     0;   SIGMA  =   0.05  broadening in eV -4-tet -1-fermi 0-gaus

 Electronic relaxation 2 (details)
   IALGO  =     38    algorithm
   LDIAG  =      T    sub-space diagonalisation (order eigenvalues)
   LSUBROT=      F    optimize rotation matrix (better conditioning)
   TURBO    =      0    0=normal 1=particle mesh
   IRESTART =      0    0=no restart 2=restart with 2 vectors
   NREBOOT  =      0    no. of reboots
   NMIN     =      0    reboot dimension
   EREF     =   0.00    reference energy to select bands
   IMIX   =      4    mixing-type and parameters
     AMIX     =   0.10;   BMIX     =  1.20
     AMIX_MAG =   0.40;   BMIX_MAG =  1.20
     AMIN     =   0.10
     WC   =   100.;   INIMIX=   1;  MIXPRE=   1;  MAXMIX= -45

 Intra band minimization:
   WEIMIN = 0.0000     energy-eigenvalue tresh-hold
   EBREAK =  0.14E-05  absolut break condition
   DEPER  =   0.30     relativ break condition  

   TIME   =   0.40     timestep for ELM

  volume/ion in A,a.u.               =      11.26        75.99
  Fermi-wavevector in a.u.,A,eV,Ry     =   1.519265  2.870995 31.404515  2.308167
  Thomas-Fermi vector in A             =   2.628274
 
 Write flags
   LWAVE  =      F    write WAVECAR
   LCHARG =      T    write CHGCAR
   LVTOT  =      F    write LOCPOT, total local potential
   LVHAR  =      F    write LOCPOT, Hartree potential only
   LELF   =      F    write electronic localiz. function (ELF)
   LORBIT =     11    0 simple, 1 ext, 2 COOP (PROOUT)


 Dipole corrections
   LMONO  =      F    monopole corrections only (constant potential shift)
   LDIPOL =      F    correct potential (dipole corrections)
   IDIPOL =      0    1-x, 2-y, 3-z, 4-all directions 
   EPSILON=  1.0000000 bulk dielectric constant

 LDA+U is selected, type is set to LDAUTYPE =  2
   angular momentum for each species LDAUL =    -1    2
   U (eV)           for each species LDAUU =   0.0  7.5
   J (eV)           for each species LDAUJ =   0.0  0.0
 Exchange correlation treatment:
   GGA     =    --    GGA type
   LEXCH   =     8    internal setting for exchange type
   VOSKOWN=      0    Vosko Wilk Nusair interpolation
   LHFCALC =     F    Hartree Fock is set to
   LHFONE  =     F    Hartree Fock one center treatment
   AEXX    =    0.0000 exact exchange contribution

 Linear response parameters
   LEPSILON=     F    determine dielectric tensor
   LRPA    =     F    only Hartree local field effects (RPA)
   LNABLA  =     F    use nabla operator in PAW spheres
   LVEL    =     F    velocity operator in full k-point grid
   LINTERFAST=   F  fast interpolation
   KINTER  =     0    interpolate to denser k-point grid
   CSHIFT  =0.1000    complex shift for real part using Kramers Kronig
   OMEGAMAX=  -1.0    maximum frequency
   DEG_THRESHOLD= 0.2000000E-02 threshold for treating states as degnerate
   RTIME   =    0.100 relaxation time in fs

 Orbital magnetization related:
   ORBITALMAG=     F  switch on orbital magnetization
   LCHIMAG   =     F  perturbation theory with respect to B field
   DQ        =  0.001000  dq finite difference perturbation B field



--------------------------------------------------------------------------------------------------------


 Static calculation
 charge density and potential will be updated during run
 non-spin polarized calculation
 Variant of blocked Davidson
 Davidson routine will perform the subspace rotation
 perform sub-space diagonalisation
    after iterative eigenvector-optimisation
 modified Broyden-mixing scheme, WC =      100.0
 initial mixing is a Kerker type mixing with AMIX =  0.1000 and BMIX =      1.2000
 Hartree-type preconditioning will be used
 using additional bands            9
 reciprocal scheme for non local part
 use partial core corrections
 calculate Harris-corrections to forces 
   (improved forces if not selfconsistent)
 use gradient corrections 
 use of overlap-Matrix (Vanderbilt PP)
 Gauss-broadening in eV      SIGMA  =   0.05


--------------------------------------------------------------------------------------------------------


  energy-cutoff  :      520.00
  volume of cell :       22.52
      direct lattice vectors                 reciprocal lattice vectors
     0.000000000  2.241414001  2.241414001    -0.223073470  0.223073470  0.223073470
     2.241414001  0.000000000  2.241414001     0.223073470 -0.223073470  0.223073470
     2.241414001  2.241414001  0.000000000     0.223073470  0.223073470 -0.223073470

  length of vectors
     3.169838079  3.169838079  3.169838079     0.386374585  0.386374585  0.386374585


 
 k-points in units of 2pi/SCALE and weight: K-Mesh                                  
   0.00000000  0.00000000  0.00000000       0.000
  -0.01174071  0.01174071  0.01174071       0.001
  -0.02348142  0.02348142  0.02348142       0.001
  -0.03522213  0.03522213  0.03522213       0.001
  -0.04696284  0.04696284  0.04696284       0.001
  -0.05870354  0.05870354  0.05870354       0.001
  -0.07044425  0.07044425  0.07044425       0.001
  -0.08218496  0.08218496  0.08218496       0.001
  -0.09392567  0.09392567  0.09392567       0.001
  -0.10566638  0.10566638  0.10566638       0.001
   0.00000000  0.00000000  0.02348142       0.001
  -0.01174071  0.01174071  0.03522213       0.003
  -0.02348142  0.02348142  0.04696284       0.003
  -0.03522213  0.03522213  0.05870354       0.003
  -0.04696284  0.04696284  0.07044425       0.003
  -0.05870354  0.05870354  0.08218496       0.003
  -0.07044425  0.07044425  0.09392567       0.003
  -0.08218496  0.08218496  0.10566638       0.003
  -0.09392567  0.09392567  0.11740709       0.003
   0.11740709 -0.11740709 -0.09392567       0.003
   0.10566638 -0.10566638 -0.08218496       0.003
   0.09392567 -0.09392567 -0.07044425       0.003
   0.08218496 -0.08218496 -0.05870354       0.003
   0.07044425 -0.07044425 -0.04696284       0.003
   0.05870354 -0.05870354 -0.03522213       0.003
   0.04696284 -0.04696284 -0.02348142       0.003
   0.03522213 -0.03522213 -0.01174071       0.003
   0.02348142 -0.02348142  0.00000000       0.002
   0.00000000  0.00000000  0.04696284       0.001
  -0.01174071  0.01174071  0.05870354       0.003
  -0.02348142  0.02348142  0.07044425       0.003
  -0.03522213  0.03522213  0.08218496       0.003
  -0.04696284  0.04696284  0.09392567       0.003
  -0.05870354  0.05870354  0.10566638       0.003
  -0.07044425  0.07044425  0.11740709       0.003
  -0.08218496  0.08218496  0.12914780       0.003
   0.12914780 -0.12914780 -0.08218496       0.003
   0.11740709 -0.11740709 -0.07044425       0.003
   0.10566638 -0.10566638 -0.05870354       0.003
   0.09392567 -0.09392567 -0.04696284       0.003
   0.08218496 -0.08218496 -0.03522213       0.003
   0.07044425 -0.07044425 -0.02348142       0.003
   0.05870354 -0.05870354 -0.01174071       0.003
   0.04696284 -0.04696284  0.00000000       0.002
   0.00000000  0.00000000  0.07044425       0.001
  -0.01174071  0.01174071  0.08218496       0.003
  -0.02348142  0.02348142  0.09392567       0.003
  -0.03522213  0.03522213  0.10566638       0.003
  -0.04696284  0.04696284  0.11740709       0.003
  -0.05870354  0.05870354  0.12914780       0.003
  -0.07044425  0.07044425  0.14088851       0.003
   0.14088851 -0.14088851 -0.07044425       0.003
   0.12914780 -0.12914780 -0.05870354       0.003
   0.11740709 -0.11740709 -0.04696284       0.003
   0.10566638 -0.10566638 -0.03522213       0.003
   0.09392567 -0.09392567 -0.02348142       0.003
   0.08218496 -0.08218496 -0.01174071       0.003
   0.07044425 -0.07044425  0.00000000       0.002
   0.00000000  0.00000000  0.09392567       0.001
  -0.01174071  0.01174071  0.10566638       0.003
  -0.02348142  0.02348142  0.11740709       0.003
  -0.03522213  0.03522213  0.12914780       0.003
  -0.04696284  0.04696284  0.14088851       0.003
  -0.05870354  0.05870354  0.15262922       0.003
   0.15262922 -0.15262922 -0.05870354       0.003
   0.14088851 -0.14088851 -0.04696284       0.003
   0.12914780 -0.12914780 -0.03522213       0.003
   0.11740709 -0.11740709 -0.02348142       0.003
   0.10566638 -0.10566638 -0.01174071       0.003
   0.09392567 -0.09392567  0.00000000       0.002
   0.00000000  0.00000000  0.11740709       0.001
  -0.01174071  0.01174071  0.12914780       0.003
  -0.02348142  0.02348142  0.14088851       0.003
  -0.03522213  0.03522213  0.15262922       0.003
  -0.04696284  0.04696284  0.16436993       0.003
   0.16436993 -0.16436993 -0.04696284       0.003
   0.15262922 -0.15262922 -0.03522213       0.003
   0.14088851 -0.14088851 -0.02348142       0.003
   0.12914780 -0.12914780 -0.01174071       0.003
   0.11740709 -0.11740709  0.00000000       0.002
   0.00000000  0.00000000  0.14088851       0.001
  -0.01174071  0.01174071  0.15262922       0.003
  -0.02348142  0.02348142  0.16436993       0.003
  -0.03522213  0.03522213  0.17611063       0.003
   0.17611063 -0.17611063 -0.03522213       0.003
   0.16436993 -0.16436993 -0.02348142       0.003
   0.15262922 -0.15262922 -0.01174071       0.003
   0.14088851 -0.14088851  0.00000000       0.002
   0.00000000  0.00000000  0.16436993       0.001
  -0.01174071  0.01174071  0.17611063       0.003
  -0.02348142  0.02348142  0.18785134       0.003
   0.18785134 -0.18785134 -0.02348142       0.003
   0.17611063 -0.17611063 -0.01174071       0.003
   0.16436993 -0.16436993  0.00000000       0.002
   0.00000000  0.00000000  0.18785134       0.001
  -0.01174071  0.01174071  0.19959205       0.003
   0.19959205 -0.19959205 -0.01174071       0.003
   0.18785134 -0.18785134 -0.00000000       0.002
   0.00000000  0.00000000  0.21133276       0.001
   0.21133276 -0.21133276  0.00000000       0.002
   0.00000000  0.02348142  0.04696284       0.003
  -0.01174071  0.03522213  0.05870354       0.007
  -0.02348142  0.04696284  0.07044425       0.007
  -0.03522213  0.05870354  0.08218496       0.007
  -0.04696284  0.07044425  0.09392567       0.007
  -0.05870354  0.08218496  0.10566638       0.007
  -0.07044425  0.09392567  0.11740709       0.007
   0.14088851 -0.11740709 -0.09392567       0.007
   0.00000000  0.02348142  0.07044425       0.003
  -0.01174071  0.03522213  0.08218496       0.007
  -0.02348142  0.04696284  0.09392567       0.007
  -0.03522213  0.05870354  0.10566638       0.007
  -0.04696284  0.07044425  0.11740709       0.007
  -0.05870354  0.08218496  0.12914780       0.007
   0.15262922 -0.12914780 -0.08218496       0.007
   0.14088851 -0.11740709 -0.07044425       0.007
   0.12914780 -0.10566638 -0.05870354       0.007
   0.11740709 -0.09392567 -0.04696284       0.007
   0.10566638 -0.08218496 -0.03522213       0.007
   0.09392567 -0.07044425 -0.02348142       0.007
   0.08218496 -0.05870354 -0.01174071       0.007
   0.07044425 -0.04696284  0.00000000       0.003
  -0.00000000  0.02348142  0.09392567       0.003
  -0.01174071  0.03522213  0.10566638       0.007
  -0.02348142  0.04696284  0.11740709       0.007
  -0.03522213  0.05870354  0.12914780       0.007
  -0.04696284  0.07044425  0.14088851       0.007
   0.16436993 -0.14088851 -0.07044425       0.007
   0.15262922 -0.12914780 -0.05870354       0.007
   0.14088851 -0.11740709 -0.04696284       0.007
   0.12914780 -0.10566638 -0.03522213       0.007
   0.11740709 -0.09392567 -0.02348142       0.007
   0.10566638 -0.08218496 -0.01174071       0.007
   0.09392567 -0.07044425  0.00000000       0.003
   0.00000000  0.02348142  0.11740709       0.003
  -0.01174071  0.03522213  0.12914780       0.007
  -0.02348142  0.04696284  0.14088851       0.007
  -0.03522213  0.05870354  0.15262922       0.007
   0.17611063 -0.15262922 -0.05870354       0.007
   0.16436993 -0.14088851 -0.04696284       0.007
   0.15262922 -0.12914780 -0.03522213       0.007
   0.14088851 -0.11740709 -0.02348142       0.007
   0.12914780 -0.10566638 -0.01174071       0.007
   0.11740709 -0.09392567  0.00000000       0.003
   0.00000000  0.02348142  0.14088851       0.003
  -0.01174071  0.03522213  0.15262922       0.007
  -0.02348142  0.04696284  0.16436993       0.007
   0.18785134 -0.16436993 -0.04696284       0.007
   0.17611063 -0.15262922 -0.03522213       0.007
   0.16436993 -0.14088851 -0.02348142       0.007
   0.15262922 -0.12914780 -0.01174071       0.007
   0.14088851 -0.11740709  0.00000000       0.003
  -0.00000000  0.02348142  0.16436993       0.003
  -0.01174071  0.03522213  0.17611063       0.007
   0.19959205 -0.17611063 -0.03522213       0.007
   0.18785134 -0.16436993 -0.02348142       0.007
   0.17611063 -0.15262922 -0.01174071       0.007
   0.16436993 -0.14088851  0.00000000       0.003
   0.00000000  0.02348142  0.18785134       0.003
   0.21133276 -0.18785134 -0.02348142       0.007
   0.19959205 -0.17611063 -0.01174071       0.007
   0.18785134 -0.16436993  0.00000000       0.003
   0.22307347 -0.19959205 -0.01174071       0.003
   0.21133276 -0.18785134  0.00000000       0.003
   0.00000000  0.04696284  0.09392567       0.003
  -0.01174071  0.05870354  0.10566638       0.007
  -0.02348142  0.07044425  0.11740709       0.007
  -0.03522213  0.08218496  0.12914780       0.007
   0.17611063 -0.12914780 -0.08218496       0.007
   0.16436993 -0.11740709 -0.07044425       0.007
   0.00000000  0.04696284  0.11740709       0.003
  -0.01174071  0.05870354  0.12914780       0.007
  -0.02348142  0.07044425  0.14088851       0.007
   0.18785134 -0.14088851 -0.07044425       0.007
   0.17611063 -0.12914780 -0.05870354       0.007
   0.16436993 -0.11740709 -0.04696284       0.007
   0.15262922 -0.10566638 -0.03522213       0.007
   0.14088851 -0.09392567 -0.02348142       0.007
   0.12914780 -0.08218496 -0.01174071       0.007
   0.11740709 -0.07044425  0.00000000       0.003
   0.00000000  0.04696284  0.14088851       0.003
  -0.01174071  0.05870354  0.15262922       0.007
   0.19959205 -0.15262922 -0.05870354       0.007
   0.18785134 -0.14088851 -0.04696284       0.007
   0.17611063 -0.12914780 -0.03522213       0.007
   0.16436993 -0.11740709 -0.02348142       0.007
   0.15262922 -0.10566638 -0.01174071       0.007
   0.14088851 -0.09392567  0.00000000       0.003
   0.00000000  0.04696284  0.16436993       0.003
   0.21133276 -0.16436993 -0.04696284       0.007
   0.19959205 -0.15262922 -0.03522213       0.007
   0.18785134 -0.14088851 -0.02348142       0.007
   0.17611063 -0.12914780 -0.01174071       0.007
   0.16436993 -0.11740709 -0.00000000       0.003
   0.22307347 -0.17611063 -0.03522213       0.003
   0.21133276 -0.16436993 -0.02348142       0.007
   0.19959205 -0.15262922 -0.01174071       0.007
   0.18785134 -0.14088851  0.00000000       0.003
   0.22307347 -0.17611063 -0.01174071       0.003
   0.21133276 -0.16436993  0.00000000       0.003
   0.00000000  0.07044425  0.14088851       0.003
   0.21133276 -0.14088851 -0.07044425       0.007
   0.19959205 -0.12914780 -0.05870354       0.007
   0.18785134 -0.11740709 -0.04696284       0.007
   0.22307347 -0.15262922 -0.05870354       0.003
   0.21133276 -0.14088851 -0.04696284       0.007
   0.19959205 -0.12914780 -0.03522213       0.007
   0.18785134 -0.11740709 -0.02348142       0.007
   0.17611063 -0.10566638 -0.01174071       0.007
   0.16436993 -0.09392567  0.00000000       0.003
   0.22307347 -0.15262922 -0.03522213       0.003
   0.21133276 -0.14088851 -0.02348142       0.007
   0.19959205 -0.12914780 -0.01174071       0.007
   0.18785134 -0.11740709  0.00000000       0.003
   0.22307347 -0.15262922 -0.01174071       0.003
   0.21133276 -0.14088851  0.00000000       0.003
   0.22307347 -0.12914780 -0.03522213       0.003
   0.21133276 -0.11740709 -0.02348142       0.007
   0.22307347 -0.12914780 -0.01174071       0.003
   0.21133276 -0.11740709  0.00000000       0.003
 
 k-points in reciprocal lattice and weights: K-Mesh                                  
   0.00000000  0.00000000  0.00000000       0.000
   0.05263158  0.00000000  0.00000000       0.001
   0.10526316  0.00000000  0.00000000       0.001
   0.15789474  0.00000000  0.00000000       0.001
   0.21052632  0.00000000  0.00000000       0.001
   0.26315789  0.00000000  0.00000000       0.001
   0.31578947  0.00000000  0.00000000       0.001
   0.36842105  0.00000000  0.00000000       0.001
   0.42105263  0.00000000  0.00000000       0.001
   0.47368421  0.00000000  0.00000000       0.001
   0.05263158  0.05263158  0.00000000       0.001
   0.10526316  0.05263158  0.00000000       0.003
   0.15789474  0.05263158  0.00000000       0.003
   0.21052632  0.05263158  0.00000000       0.003
   0.26315789  0.05263158  0.00000000       0.003
   0.31578947  0.05263158  0.00000000       0.003
   0.36842105  0.05263158  0.00000000       0.003
   0.42105263  0.05263158  0.00000000       0.003
   0.47368421  0.05263158  0.00000000       0.003
  -0.47368421  0.05263158  0.00000000       0.003
  -0.42105263  0.05263158  0.00000000       0.003
  -0.36842105  0.05263158  0.00000000       0.003
  -0.31578947  0.05263158  0.00000000       0.003
  -0.26315789  0.05263158  0.00000000       0.003
  -0.21052632  0.05263158  0.00000000       0.003
  -0.15789474  0.05263158  0.00000000       0.003
  -0.10526316  0.05263158  0.00000000       0.003
  -0.05263158  0.05263158  0.00000000       0.002
   0.10526316  0.10526316  0.00000000       0.001
   0.15789474  0.10526316  0.00000000       0.003
   0.21052632  0.10526316  0.00000000       0.003
   0.26315789  0.10526316  0.00000000       0.003
   0.31578947  0.10526316  0.00000000       0.003
   0.36842105  0.10526316  0.00000000       0.003
   0.42105263  0.10526316  0.00000000       0.003
   0.47368421  0.10526316  0.00000000       0.003
  -0.47368421  0.10526316  0.00000000       0.003
  -0.42105263  0.10526316  0.00000000       0.003
  -0.36842105  0.10526316  0.00000000       0.003
  -0.31578947  0.10526316  0.00000000       0.003
  -0.26315789  0.10526316  0.00000000       0.003
  -0.21052632  0.10526316  0.00000000       0.003
  -0.15789474  0.10526316  0.00000000       0.003
  -0.10526316  0.10526316  0.00000000       0.002
   0.15789474  0.15789474  0.00000000       0.001
   0.21052632  0.15789474  0.00000000       0.003
   0.26315789  0.15789474  0.00000000       0.003
   0.31578947  0.15789474  0.00000000       0.003
   0.36842105  0.15789474  0.00000000       0.003
   0.42105263  0.15789474  0.00000000       0.003
   0.47368421  0.15789474  0.00000000       0.003
  -0.47368421  0.15789474  0.00000000       0.003
  -0.42105263  0.15789474  0.00000000       0.003
  -0.36842105  0.15789474  0.00000000       0.003
  -0.31578947  0.15789474  0.00000000       0.003
  -0.26315789  0.15789474  0.00000000       0.003
  -0.21052632  0.15789474  0.00000000       0.003
  -0.15789474  0.15789474  0.00000000       0.002
   0.21052632  0.21052632  0.00000000       0.001
   0.26315789  0.21052632  0.00000000       0.003
   0.31578947  0.21052632  0.00000000       0.003
   0.36842105  0.21052632  0.00000000       0.003
   0.42105263  0.21052632  0.00000000       0.003
   0.47368421  0.21052632  0.00000000       0.003
  -0.47368421  0.21052632  0.00000000       0.003
  -0.42105263  0.21052632  0.00000000       0.003
  -0.36842105  0.21052632  0.00000000       0.003
  -0.31578947  0.21052632  0.00000000       0.003
  -0.26315789  0.21052632  0.00000000       0.003
  -0.21052632  0.21052632  0.00000000       0.002
   0.26315789  0.26315789  0.00000000       0.001
   0.31578947  0.26315789  0.00000000       0.003
   0.36842105  0.26315789  0.00000000       0.003
   0.42105263  0.26315789  0.00000000       0.003
   0.47368421  0.26315789  0.00000000       0.003
  -0.47368421  0.26315789  0.00000000       0.003
  -0.42105263  0.26315789  0.00000000       0.003
  -0.36842105  0.26315789  0.00000000       0.003
  -0.31578947  0.26315789  0.00000000       0.003
  -0.26315789  0.26315789  0.00000000       0.002
   0.31578947  0.31578947  0.00000000       0.001
   0.36842105  0.31578947  0.00000000       0.003
   0.42105263  0.31578947  0.00000000       0.003
   0.47368421  0.31578947  0.00000000       0.003
  -0.47368421  0.31578947  0.00000000       0.003
  -0.42105263  0.31578947  0.00000000       0.003
  -0.36842105  0.31578947  0.00000000       0.003
  -0.31578947  0.31578947  0.00000000       0.002
   0.36842105  0.36842105  0.00000000       0.001
   0.42105263  0.36842105  0.00000000       0.003
   0.47368421  0.36842105  0.00000000       0.003
  -0.47368421  0.36842105  0.00000000       0.003
  -0.42105263  0.36842105  0.00000000       0.003
  -0.36842105  0.36842105  0.00000000       0.002
   0.42105263  0.42105263  0.00000000       0.001
   0.47368421  0.42105263  0.00000000       0.003
  -0.47368421  0.42105263  0.00000000       0.003
  -0.42105263  0.42105263  0.00000000       0.002
   0.47368421  0.47368421  0.00000000       0.001
  -0.47368421  0.47368421  0.00000000       0.002
   0.15789474  0.10526316  0.05263158       0.003
   0.21052632  0.10526316  0.05263158       0.007
   0.26315789  0.10526316  0.05263158       0.007
   0.31578947  0.10526316  0.05263158       0.007
   0.36842105  0.10526316  0.05263158       0.007
   0.42105263  0.10526316  0.05263158       0.007
   0.47368421  0.10526316  0.05263158       0.007
  -0.47368421  0.10526316  0.05263158       0.007
   0.21052632  0.15789474  0.05263158       0.003
   0.26315789  0.15789474  0.05263158       0.007
   0.31578947  0.15789474  0.05263158       0.007
   0.36842105  0.15789474  0.05263158       0.007
   0.42105263  0.15789474  0.05263158       0.007
   0.47368421  0.15789474  0.05263158       0.007
  -0.47368421  0.15789474  0.05263158       0.007
  -0.42105263  0.15789474  0.05263158       0.007
  -0.36842105  0.15789474  0.05263158       0.007
  -0.31578947  0.15789474  0.05263158       0.007
  -0.26315789  0.15789474  0.05263158       0.007
  -0.21052632  0.15789474  0.05263158       0.007
  -0.15789474  0.15789474  0.05263158       0.007
  -0.10526316  0.15789474  0.05263158       0.003
   0.26315789  0.21052632  0.05263158       0.003
   0.31578947  0.21052632  0.05263158       0.007
   0.36842105  0.21052632  0.05263158       0.007
   0.42105263  0.21052632  0.05263158       0.007
   0.47368421  0.21052632  0.05263158       0.007
  -0.47368421  0.21052632  0.05263158       0.007
  -0.42105263  0.21052632  0.05263158       0.007
  -0.36842105  0.21052632  0.05263158       0.007
  -0.31578947  0.21052632  0.05263158       0.007
  -0.26315789  0.21052632  0.05263158       0.007
  -0.21052632  0.21052632  0.05263158       0.007
  -0.15789474  0.21052632  0.05263158       0.003
   0.31578947  0.26315789  0.05263158       0.003
   0.36842105  0.26315789  0.05263158       0.007
   0.42105263  0.26315789  0.05263158       0.007
   0.47368421  0.26315789  0.05263158       0.007
  -0.47368421  0.26315789  0.05263158       0.007
  -0.42105263  0.26315789  0.05263158       0.007
  -0.36842105  0.26315789  0.05263158       0.007
  -0.31578947  0.26315789  0.05263158       0.007
  -0.26315789  0.26315789  0.05263158       0.007
  -0.21052632  0.26315789  0.05263158       0.003
   0.36842105  0.31578947  0.05263158       0.003
   0.42105263  0.31578947  0.05263158       0.007
   0.47368421  0.31578947  0.05263158       0.007
  -0.47368421  0.31578947  0.05263158       0.007
  -0.42105263  0.31578947  0.05263158       0.007
  -0.36842105  0.31578947  0.05263158       0.007
  -0.31578947  0.31578947  0.05263158       0.007
  -0.26315789  0.31578947  0.05263158       0.003
   0.42105263  0.36842105  0.05263158       0.003
   0.47368421  0.36842105  0.05263158       0.007
  -0.47368421  0.36842105  0.05263158       0.007
  -0.42105263  0.36842105  0.05263158       0.007
  -0.36842105  0.36842105  0.05263158       0.007
  -0.31578947  0.36842105  0.05263158       0.003
   0.47368421  0.42105263  0.05263158       0.003
  -0.47368421  0.42105263  0.05263158       0.007
  -0.42105263  0.42105263  0.05263158       0.007
  -0.36842105  0.42105263  0.05263158       0.003
  -0.47368421  0.47368421  0.05263158       0.003
  -0.42105263  0.47368421  0.05263158       0.003
   0.31578947  0.21052632  0.10526316       0.003
   0.36842105  0.21052632  0.10526316       0.007
   0.42105263  0.21052632  0.10526316       0.007
   0.47368421  0.21052632  0.10526316       0.007
  -0.47368421  0.21052632  0.10526316       0.007
  -0.42105263  0.21052632  0.10526316       0.007
   0.36842105  0.26315789  0.10526316       0.003
   0.42105263  0.26315789  0.10526316       0.007
   0.47368421  0.26315789  0.10526316       0.007
  -0.47368421  0.26315789  0.10526316       0.007
  -0.42105263  0.26315789  0.10526316       0.007
  -0.36842105  0.26315789  0.10526316       0.007
  -0.31578947  0.26315789  0.10526316       0.007
  -0.26315789  0.26315789  0.10526316       0.007
  -0.21052632  0.26315789  0.10526316       0.007
  -0.15789474  0.26315789  0.10526316       0.003
   0.42105263  0.31578947  0.10526316       0.003
   0.47368421  0.31578947  0.10526316       0.007
  -0.47368421  0.31578947  0.10526316       0.007
  -0.42105263  0.31578947  0.10526316       0.007
  -0.36842105  0.31578947  0.10526316       0.007
  -0.31578947  0.31578947  0.10526316       0.007
  -0.26315789  0.31578947  0.10526316       0.007
  -0.21052632  0.31578947  0.10526316       0.003
   0.47368421  0.36842105  0.10526316       0.003
  -0.47368421  0.36842105  0.10526316       0.007
  -0.42105263  0.36842105  0.10526316       0.007
  -0.36842105  0.36842105  0.10526316       0.007
  -0.31578947  0.36842105  0.10526316       0.007
  -0.26315789  0.36842105  0.10526316       0.003
  -0.47368421  0.42105263  0.10526316       0.003
  -0.42105263  0.42105263  0.10526316       0.007
  -0.36842105  0.42105263  0.10526316       0.007
  -0.31578947  0.42105263  0.10526316       0.003
  -0.42105263  0.47368421  0.10526316       0.003
  -0.36842105  0.47368421  0.10526316       0.003
   0.47368421  0.31578947  0.15789474       0.003
  -0.47368421  0.31578947  0.15789474       0.007
  -0.42105263  0.31578947  0.15789474       0.007
  -0.36842105  0.31578947  0.15789474       0.007
  -0.47368421  0.36842105  0.15789474       0.003
  -0.42105263  0.36842105  0.15789474       0.007
  -0.36842105  0.36842105  0.15789474       0.007
  -0.31578947  0.36842105  0.15789474       0.007
  -0.26315789  0.36842105  0.15789474       0.007
  -0.21052632  0.36842105  0.15789474       0.003
  -0.42105263  0.42105263  0.15789474       0.003
  -0.36842105  0.42105263  0.15789474       0.007
  -0.31578947  0.42105263  0.15789474       0.007
  -0.26315789  0.42105263  0.15789474       0.003
  -0.36842105  0.47368421  0.15789474       0.003
  -0.31578947  0.47368421  0.15789474       0.003
  -0.36842105  0.42105263  0.21052632       0.003
  -0.31578947  0.42105263  0.21052632       0.007
  -0.31578947  0.47368421  0.21052632       0.003
  -0.26315789  0.47368421  0.21052632       0.003
 
 position of ions in fractional coordinates (direct lattice) 
   0.75000000  0.75000000  0.75000000
   0.00000000  0.00000000  0.00000000
 
 position of ions in cartesian coordinates  (Angst):
   3.36212100  3.36212100  3.36212100
   0.00000000  0.00000000  0.00000000
 


--------------------------------------------------------------------------------------------------------


 k-point  1 :   0.0000 0.0000 0.0000  plane waves:     609
 k-point  2 :   0.0526 0.0000 0.0000  plane waves:     606
 k-point  3 :   0.1053 0.0000 0.0000  plane waves:     597
 k-point  4 :   0.1579 0.0000 0.0000  plane waves:     591
 k-point  5 :   0.2105 0.0000 0.0000  plane waves:     592
 k-point  6 :   0.2632 0.0000 0.0000  plane waves:     607
 k-point  7 :   0.3158 0.0000 0.0000  plane waves:     604
 k-point  8 :   0.3684 0.0000 0.0000  plane waves:     607
 k-point  9 :   0.4211 0.0000 0.0000  plane waves:     604
 k-point 10 :   0.4737 0.0000 0.0000  plane waves:     610
 k-point 11 :   0.0526 0.0526 0.0000  plane waves:     605
 k-point 12 :   0.1053 0.0526 0.0000  plane waves:     596
 k-point 13 :   0.1579 0.0526 0.0000  plane waves:     596
 k-point 14 :   0.2105 0.0526 0.0000  plane waves:     593
 k-point 15 :   0.2632 0.0526 0.0000  plane waves:     599
 k-point 16 :   0.3158 0.0526 0.0000  plane waves:     603
 k-point 17 :   0.3684 0.0526 0.0000  plane waves:     606
 k-point 18 :   0.4211 0.0526 0.0000  plane waves:     601
 k-point 19 :   0.4737 0.0526 0.0000  plane waves:     600
 k-point 20 :  -0.4737 0.0526 0.0000  plane waves:     608
 k-point 21 :  -0.4211 0.0526 0.0000  plane waves:     603
 k-point 22 :  -0.3684 0.0526 0.0000  plane waves:     607
 k-point 23 :  -0.3158 0.0526 0.0000  plane waves:     607
 k-point 24 :  -0.2632 0.0526 0.0000  plane waves:     606
 k-point 25 :  -0.2105 0.0526 0.0000  plane waves:     598
 k-point 26 :  -0.1579 0.0526 0.0000  plane waves:     596
 k-point 27 :  -0.1053 0.0526 0.0000  plane waves:     593
 k-point 28 :  -0.0526 0.0526 0.0000  plane waves:     597
 k-point 29 :   0.1053 0.1053 0.0000  plane waves:     593
 k-point 30 :   0.1579 0.1053 0.0000  plane waves:     593
 k-point 31 :   0.2105 0.1053 0.0000  plane waves:     593
 k-point 32 :   0.2632 0.1053 0.0000  plane waves:     600
 k-point 33 :   0.3158 0.1053 0.0000  plane waves:     602
 k-point 34 :   0.3684 0.1053 0.0000  plane waves:     603
 k-point 35 :   0.4211 0.1053 0.0000  plane waves:     601
 k-point 36 :   0.4737 0.1053 0.0000  plane waves:     600
 k-point 37 :  -0.4737 0.1053 0.0000  plane waves:     605
 k-point 38 :  -0.4211 0.1053 0.0000  plane waves:     601
 k-point 39 :  -0.3684 0.1053 0.0000  plane waves:     602
 k-point 40 :  -0.3158 0.1053 0.0000  plane waves:     605
 k-point 41 :  -0.2632 0.1053 0.0000  plane waves:     604
 k-point 42 :  -0.2105 0.1053 0.0000  plane waves:     604
 k-point 43 :  -0.1579 0.1053 0.0000  plane waves:     600
 k-point 44 :  -0.1053 0.1053 0.0000  plane waves:     594
 k-point 45 :   0.1579 0.1579 0.0000  plane waves:     597
 k-point 46 :   0.2105 0.1579 0.0000  plane waves:     592
 k-point 47 :   0.2632 0.1579 0.0000  plane waves:     603
 k-point 48 :   0.3158 0.1579 0.0000  plane waves:     606
 k-point 49 :   0.3684 0.1579 0.0000  plane waves:     607
 k-point 50 :   0.4211 0.1579 0.0000  plane waves:     609
 k-point 51 :   0.4737 0.1579 0.0000  plane waves:     604
 k-point 52 :  -0.4737 0.1579 0.0000  plane waves:     608
 k-point 53 :  -0.4211 0.1579 0.0000  plane waves:     607
 k-point 54 :  -0.3684 0.1579 0.0000  plane waves:     604
 k-point 55 :  -0.3158 0.1579 0.0000  plane waves:     610
 k-point 56 :  -0.2632 0.1579 0.0000  plane waves:     607
 k-point 57 :  -0.2105 0.1579 0.0000  plane waves:     603
 k-point 58 :  -0.1579 0.1579 0.0000  plane waves:     606
 k-point 59 :   0.2105 0.2105 0.0000  plane waves:     592
 k-point 60 :   0.2632 0.2105 0.0000  plane waves:     599
 k-point 61 :   0.3158 0.2105 0.0000  plane waves:     605
 k-point 62 :   0.3684 0.2105 0.0000  plane waves:     606
 k-point 63 :   0.4211 0.2105 0.0000  plane waves:     613
 k-point 64 :   0.4737 0.2105 0.0000  plane waves:     607
 k-point 65 :  -0.4737 0.2105 0.0000  plane waves:     609
 k-point 66 :  -0.4211 0.2105 0.0000  plane waves:     609
 k-point 67 :  -0.3684 0.2105 0.0000  plane waves:     603
 k-point 68 :  -0.3158 0.2105 0.0000  plane waves:     606
 k-point 69 :  -0.2632 0.2105 0.0000  plane waves:     609
 k-point 70 :  -0.2105 0.2105 0.0000  plane waves:     602
 k-point 71 :   0.2632 0.2632 0.0000  plane waves:     592
 k-point 72 :   0.3158 0.2632 0.0000  plane waves:     605
 k-point 73 :   0.3684 0.2632 0.0000  plane waves:     609
 k-point 74 :   0.4211 0.2632 0.0000  plane waves:     606
 k-point 75 :   0.4737 0.2632 0.0000  plane waves:     609
 k-point 76 :  -0.4737 0.2632 0.0000  plane waves:     609
 k-point 77 :  -0.4211 0.2632 0.0000  plane waves:     609
 k-point 78 :  -0.3684 0.2632 0.0000  plane waves:     608
 k-point 79 :  -0.3158 0.2632 0.0000  plane waves:     612
 k-point 80 :  -0.2632 0.2632 0.0000  plane waves:     610
 k-point 81 :   0.3158 0.3158 0.0000  plane waves:     612
 k-point 82 :   0.3684 0.3158 0.0000  plane waves:     615
 k-point 83 :   0.4211 0.3158 0.0000  plane waves:     607
 k-point 84 :   0.4737 0.3158 0.0000  plane waves:     609
 k-point 85 :  -0.4737 0.3158 0.0000  plane waves:     614
 k-point 86 :  -0.4211 0.3158 0.0000  plane waves:     606
 k-point 87 :  -0.3684 0.3158 0.0000  plane waves:     604
 k-point 88 :  -0.3158 0.3158 0.0000  plane waves:     606
 k-point 89 :   0.3684 0.3684 0.0000  plane waves:     608
 k-point 90 :   0.4211 0.3684 0.0000  plane waves:     613
 k-point 91 :   0.4737 0.3684 0.0000  plane waves:     610
 k-point 92 :  -0.4737 0.3684 0.0000  plane waves:     612
 k-point 93 :  -0.4211 0.3684 0.0000  plane waves:     616
 k-point 94 :  -0.3684 0.3684 0.0000  plane waves:     618
 k-point 95 :   0.4211 0.4211 0.0000  plane waves:     620
 k-point 96 :   0.4737 0.4211 0.0000  plane waves:     612
 k-point 97 :  -0.4737 0.4211 0.0000  plane waves:     612
 k-point 98 :  -0.4211 0.4211 0.0000  plane waves:     614
 k-point 99 :   0.4737 0.4737 0.0000  plane waves:     620
 k-point ** :  -0.4737 0.4737 0.0000  plane waves:     612
 k-point ** :   0.1579 0.1053 0.0526  plane waves:     595
 k-point ** :   0.2105 0.1053 0.0526  plane waves:     591
 k-point ** :   0.2632 0.1053 0.0526  plane waves:     601
 k-point ** :   0.3158 0.1053 0.0526  plane waves:     603
 k-point ** :   0.3684 0.1053 0.0526  plane waves:     603
 k-point ** :   0.4211 0.1053 0.0526  plane waves:     605
 k-point ** :   0.4737 0.1053 0.0526  plane waves:     602
 k-point ** :  -0.4737 0.1053 0.0526  plane waves:     605
 k-point ** :   0.2105 0.1579 0.0526  plane waves:     593
 k-point ** :   0.2632 0.1579 0.0526  plane waves:     597
 k-point ** :   0.3158 0.1579 0.0526  plane waves:     601
 k-point ** :   0.3684 0.1579 0.0526  plane waves:     605
 k-point ** :   0.4211 0.1579 0.0526  plane waves:     606
 k-point ** :   0.4737 0.1579 0.0526  plane waves:     604
 k-point ** :  -0.4737 0.1579 0.0526  plane waves:     602
 k-point ** :  -0.4211 0.1579 0.0526  plane waves:     605
 k-point ** :  -0.3684 0.1579 0.0526  plane waves:     604
 k-point ** :  -0.3158 0.1579 0.0526  plane waves:     606
 k-point ** :  -0.2632 0.1579 0.0526  plane waves:     607
 k-point ** :  -0.2105 0.1579 0.0526  plane waves:     605
 k-point ** :  -0.1579 0.1579 0.0526  plane waves:     602
 k-point ** :  -0.1053 0.1579 0.0526  plane waves:     598
 k-point ** :   0.2632 0.2105 0.0526  plane waves:     593
 k-point ** :   0.3158 0.2105 0.0526  plane waves:     603
 k-point ** :   0.3684 0.2105 0.0526  plane waves:     606
 k-point ** :   0.4211 0.2105 0.0526  plane waves:     611
 k-point ** :   0.4737 0.2105 0.0526  plane waves:     608
 k-point ** :  -0.4737 0.2105 0.0526  plane waves:     607
 k-point ** :  -0.4211 0.2105 0.0526  plane waves:     603
 k-point ** :  -0.3684 0.2105 0.0526  plane waves:     603
 k-point ** :  -0.3158 0.2105 0.0526  plane waves:     604
 k-point ** :  -0.2632 0.2105 0.0526  plane waves:     605
 k-point ** :  -0.2105 0.2105 0.0526  plane waves:     608
 k-point ** :  -0.1579 0.2105 0.0526  plane waves:     605
 k-point ** :   0.3158 0.2632 0.0526  plane waves:     601
 k-point ** :   0.3684 0.2632 0.0526  plane waves:     607
 k-point ** :   0.4211 0.2632 0.0526  plane waves:     610
 k-point ** :   0.4737 0.2632 0.0526  plane waves:     607
 k-point ** :  -0.4737 0.2632 0.0526  plane waves:     611
 k-point ** :  -0.4211 0.2632 0.0526  plane waves:     610
 k-point ** :  -0.3684 0.2632 0.0526  plane waves:     609
 k-point ** :  -0.3158 0.2632 0.0526  plane waves:     606
 k-point ** :  -0.2632 0.2632 0.0526  plane waves:     606
 k-point ** :  -0.2105 0.2632 0.0526  plane waves:     613
 k-point ** :   0.3684 0.3158 0.0526  plane waves:     610
 k-point ** :   0.4211 0.3158 0.0526  plane waves:     605
 k-point ** :   0.4737 0.3158 0.0526  plane waves:     606
 k-point ** :  -0.4737 0.3158 0.0526  plane waves:     610
 k-point ** :  -0.4211 0.3158 0.0526  plane waves:     607
 k-point ** :  -0.3684 0.3158 0.0526  plane waves:     606
 k-point ** :  -0.3158 0.3158 0.0526  plane waves:     609
 k-point ** :  -0.2632 0.3158 0.0526  plane waves:     604
 k-point ** :   0.4211 0.3684 0.0526  plane waves:     609
 k-point ** :   0.4737 0.3684 0.0526  plane waves:     609
 k-point ** :  -0.4737 0.3684 0.0526  plane waves:     610
 k-point ** :  -0.4211 0.3684 0.0526  plane waves:     613
 k-point ** :  -0.3684 0.3684 0.0526  plane waves:     612
 k-point ** :  -0.3158 0.3684 0.0526  plane waves:     608
 k-point ** :   0.4737 0.4211 0.0526  plane waves:     614
 k-point ** :  -0.4737 0.4211 0.0526  plane waves:     615
 k-point ** :  -0.4211 0.4211 0.0526  plane waves:     612
 k-point ** :  -0.3684 0.4211 0.0526  plane waves:     616
 k-point ** :  -0.4737 0.4737 0.0526  plane waves:     614
 k-point ** :  -0.4211 0.4737 0.0526  plane waves:     614
 k-point ** :   0.3158 0.2105 0.1053  plane waves:     599
 k-point ** :   0.3684 0.2105 0.1053  plane waves:     605
 k-point ** :   0.4211 0.2105 0.1053  plane waves:     608
 k-point ** :   0.4737 0.2105 0.1053  plane waves:     604
 k-point ** :  -0.4737 0.2105 0.1053  plane waves:     605
 k-point ** :  -0.4211 0.2105 0.1053  plane waves:     603
 k-point ** :   0.3684 0.2632 0.1053  plane waves:     604
 k-point ** :   0.4211 0.2632 0.1053  plane waves:     606
 k-point ** :   0.4737 0.2632 0.1053  plane waves:     605
 k-point ** :  -0.4737 0.2632 0.1053  plane waves:     610
 k-point ** :  -0.4211 0.2632 0.1053  plane waves:     607
 k-point ** :  -0.3684 0.2632 0.1053  plane waves:     604
 k-point ** :  -0.3158 0.2632 0.1053  plane waves:     610
 k-point ** :  -0.2632 0.2632 0.1053  plane waves:     607
 k-point ** :  -0.2105 0.2632 0.1053  plane waves:     608
 k-point ** :  -0.1579 0.2632 0.1053  plane waves:     608
 k-point ** :   0.4211 0.3158 0.1053  plane waves:     606
 k-point ** :   0.4737 0.3158 0.1053  plane waves:     607
 k-point ** :  -0.4737 0.3158 0.1053  plane waves:     604
 k-point ** :  -0.4211 0.3158 0.1053  plane waves:     612
 k-point ** :  -0.3684 0.3158 0.1053  plane waves:     608
 k-point ** :  -0.3158 0.3158 0.1053  plane waves:     612
 k-point ** :  -0.2632 0.3158 0.1053  plane waves:     606
 k-point ** :  -0.2105 0.3158 0.1053  plane waves:     608
 k-point ** :   0.4737 0.3684 0.1053  plane waves:     608
 k-point ** :  -0.4737 0.3684 0.1053  plane waves:     606
 k-point ** :  -0.4211 0.3684 0.1053  plane waves:     609
 k-point ** :  -0.3684 0.3684 0.1053  plane waves:     608
 k-point ** :  -0.3158 0.3684 0.1053  plane waves:     608
 k-point ** :  -0.2632 0.3684 0.1053  plane waves:     608
 k-point ** :  -0.4737 0.4211 0.1053  plane waves:     609
 k-point ** :  -0.4211 0.4211 0.1053  plane waves:     611
 k-point ** :  -0.3684 0.4211 0.1053  plane waves:     610
 k-point ** :  -0.3158 0.4211 0.1053  plane waves:     610
 k-point ** :  -0.4211 0.4737 0.1053  plane waves:     615
 k-point ** :  -0.3684 0.4737 0.1053  plane waves:     614
 k-point ** :   0.4737 0.3158 0.1579  plane waves:     604
 k-point ** :  -0.4737 0.3158 0.1579  plane waves:     608
 k-point ** :  -0.4211 0.3158 0.1579  plane waves:     609
 k-point ** :  -0.3684 0.3158 0.1579  plane waves:     610
 k-point ** :  -0.4737 0.3684 0.1579  plane waves:     606
 k-point ** :  -0.4211 0.3684 0.1579  plane waves:     611
 k-point ** :  -0.3684 0.3684 0.1579  plane waves:     611
 k-point ** :  -0.3158 0.3684 0.1579  plane waves:     611
 k-point ** :  -0.2632 0.3684 0.1579  plane waves:     611
 k-point ** :  -0.2105 0.3684 0.1579  plane waves:     607
 k-point ** :  -0.4211 0.4211 0.1579  plane waves:     609
 k-point ** :  -0.3684 0.4211 0.1579  plane waves:     607
 k-point ** :  -0.3158 0.4211 0.1579  plane waves:     615
 k-point ** :  -0.2632 0.4211 0.1579  plane waves:     615
 k-point ** :  -0.3684 0.4737 0.1579  plane waves:     612
 k-point ** :  -0.3158 0.4737 0.1579  plane waves:     613
 k-point ** :  -0.3684 0.4211 0.2105  plane waves:     609
 k-point ** :  -0.3158 0.4211 0.2105  plane waves:     612
 k-point ** :  -0.3158 0.4737 0.2105  plane waves:     610
 k-point ** :  -0.2632 0.4737 0.2105  plane waves:     613

 maximum and minimum number of plane-waves per node :       158      145

 maximum number of plane-waves:       620
 maximum index in each direction: 
   IXMAX=    6   IYMAX=    5   IZMAX=    5
   IXMIN=   -6   IYMIN=   -6   IZMIN=   -6

 WARNING: aliasing errors must be expected set NGX to  26 to avoid them
 NGY is ok and might be reduce to  24
 NGZ is ok and might be reduce to  24
 aliasing errors are usually negligible using standard VASP settings
 and one can safely disregard these warnings

 parallel 3D FFT for wavefunctions:
    minimum data exchange during FFTs selected (reduces bandwidth)
 parallel 3D FFT for charge:
    minimum data exchange during FFTs selected (reduces bandwidth)


 total amount of memory used by VASP on root node    42936. kBytes
========================================================================

   base      :      30000. kBytes
   nonl-proj :       9889. kBytes
   fftplans  :        789. kBytes
   grid      :        406. kBytes
   one-center:         15. kBytes
   wavefun   :       1837. kBytes
 
     INWAV:  cpu time    0.0000: real time    0.0002
 Broyden mixing: mesh for mixing (old mesh)
   NGX = 11   NGY = 11   NGZ = 11
  (NGX  = 48   NGY  = 48   NGZ  = 48)
  gives a total of   1331 points

 initial charge density was supplied:
 charge density of overlapping atoms calculated
 number of electron      18.0000000 magnetization 
 keeping initial charge density in first step


--------------------------------------------------------------------------------------------------------


 Maximum index for augmentation-charges         6279 (set IRDMAX)


--------------------------------------------------------------------------------------------------------


 First call to EWALD:  gamma=   0.628
 Maximum number of real-space cells 3x 3x 3
 Maximum number of reciprocal cells 3x 3x 3

 FEWALD executed in parallel
    FEWALD:  cpu time    0.0030: real time    0.0026


----------------------------------------- Iteration    1(   1)  ---------------------------------------


    POTLOK:  cpu time    0.0060: real time    0.0061
    SETDIJ:  cpu time    0.0100: real time    0.0114
     EDDAV:  cpu time    1.2178: real time    1.2284
       DOS:  cpu time    0.0030: real time    0.0032
    --------------------------------------------
      LOOP:  cpu time    1.2418: real time    1.2605

 eigenvalue-minimisations  :  8088
 total energy-change (2. order) : 0.8673395E+02  (-0.1032142E+04)
 number of electron      18.0000000 magnetization 
 augmentation part       18.0000000 magnetization 

[...]
      1     -16.1554      2.00000
      2      -6.8736      2.00000
      3      -6.7675      2.00000
      4      -6.3500      2.00000
      5      -6.1061      2.00000
      6      -5.8215      2.00000
      7      -3.1608      2.00000
      8      -1.4507      2.00000
      9      -0.5879      2.00000
     10       8.3512      0.00000
     11      10.3381      0.00000
     12      12.2195      0.00000
     13      14.9066      0.00000
     14      19.0453      0.00000
     15      21.9217      0.00000
     16      25.7653      0.00000
     17      27.6485      0.00000
     18      27.9074      0.00000

 k-point   204 :      -0.3684    0.3158    0.1579
  band No.  band energies     occupation 
      1     -16.1345      2.00000
      2      -6.8771      2.00000
      3      -6.7402      2.00000
      4      -6.2935      2.00000
      5      -6.1243      2.00000
      6      -5.7222      2.00000
      7      -3.3428      2.00000
      8      -1.4990      2.00000
      9      -0.6725      2.00000
     10       8.7130      0.00000
     11       9.9747      0.00000
     12      12.2991      0.00000
     13      14.7749      0.00000
     14      19.3517      0.00000
     15      21.6357      0.00000
     16      26.0347      0.00000
     17      27.4290      0.00000
     18      27.8721      0.00000

 k-point   205 :      -0.4737    0.3684    0.1579
  band No.  band energies     occupation 
      1     -16.1699      2.00000
      2      -6.8852      2.00000
      3      -6.7591      2.00000
      4      -6.4536      2.00000
      5      -6.0767      2.00000
      6      -5.9391      2.00000
      7      -2.7817      2.00000
      8      -1.3498      2.00000
      9      -0.7088      2.00000
     10       7.6679      0.00000
     11      11.0290      0.00000
     12      12.1856      0.00000
     13      15.0314      0.00000
     14      17.9708      0.00000
     15      23.2896      0.00000
     16      25.2799      0.00000
     17      28.3853      0.00000
     18      28.6651      0.00000

 k-point   206 :      -0.4211    0.3684    0.1579
  band No.  band energies     occupation 
      1     -16.1332      2.00000
      2      -6.8627      2.00000
      3      -6.7324      2.00000
      4      -6.3751      2.00000
      5      -6.0895      2.00000
      6      -5.8214      2.00000
      7      -2.9525      2.00000
      8      -1.5539      2.00000
      9      -0.8647      2.00000
     10       8.0672      0.00000
     11      10.8281      0.00000
     12      12.1358      0.00000
     13      14.6973      0.00000
     14      18.5084      0.00000
     15      22.7281      0.00000
     16      25.6682      0.00000
     17      27.9233      0.00000
     18      29.0199      0.00000

 k-point   207 :      -0.3684    0.3684    0.1579
  band No.  band energies     occupation 
      1     -16.1117      2.00000
      2      -6.8612      2.00000
      3      -6.7034      2.00000
      4      -6.3133      2.00000
      5      -6.1212      2.00000
      6      -5.7127      2.00000
      7      -3.0895      2.00000
      8      -1.6892      2.00000
      9      -0.9484      2.00000
     10       8.4039      0.00000
     11      10.6020      0.00000
     12      12.1809      0.00000
     13      14.4546      0.00000
     14      18.9733      0.00000
     15      22.1939      0.00000
     16      26.0766      0.00000
     17      27.4307      0.00000
     18      29.1394      0.00000

 k-point   208 :      -0.3158    0.3684    0.1579
  band No.  band energies     occupation 
      1     -16.1078      2.00000
      2      -6.8617      2.00000
      3      -6.6991      2.00000
      4      -6.2758      2.00000
      5      -6.1491      2.00000
      6      -5.6737      2.00000
      7      -3.1379      2.00000
      8      -1.7663      2.00000
      9      -0.9249      2.00000
     10       8.6027      0.00000
     11      10.4553      0.00000
     12      12.1548      0.00000
     13      14.4100      0.00000
     14      19.3200      0.00000
     15      21.7371      0.00000
     16      26.4695      0.00000
     17      27.0847      0.00000
     18      29.0288      0.00000

 k-point   209 :      -0.2632    0.3684    0.1579
  band No.  band energies     occupation 
      1     -16.1215      2.00000
      2      -6.8580      2.00000
      3      -6.7265      2.00000
      4      -6.2932      2.00000
      5      -6.1405      2.00000
      6      -5.7263      2.00000
      7      -3.0857      2.00000
      8      -1.7561      2.00000
      9      -0.8071      2.00000
     10       8.5686      0.00000
     11      10.4792      0.00000
     12      12.0392      0.00000
     13      14.5726      0.00000
     14      19.4053      0.00000
     15      21.5435      0.00000
     16      26.3988      0.00000
     17      27.3128      0.00000
     18      28.7029      0.00000

 k-point   210 :      -0.2105    0.3684    0.1579
  band No.  band energies     occupation 
      1     -16.1516      2.00000
      2      -6.8539      2.00000
      3      -6.7759      2.00000
      4      -6.3541      2.00000
      5      -6.1154      2.00000
      6      -5.8344      2.00000
      7      -2.9853      2.00000
      8      -1.6107      2.00000
      9      -0.6342      2.00000
     10       8.2908      0.00000
     11      10.6453      0.00000
     12      11.9855      0.00000
     13      14.8411      0.00000
     14      19.0831      0.00000
     15      21.8138      0.00000
     16      26.0112      0.00000
     17      27.7577      0.00000
     18      28.2179      0.00000

 k-point   211 :      -0.4211    0.4211    0.1579
  band No.  band energies     occupation 
      1     -16.1123      2.00000
      2      -6.8783      2.00000
      3      -6.6762      2.00000
      4      -6.3901      2.00000
      5      -6.0649      2.00000
      6      -5.8262      2.00000
      7      -2.8569      2.00000
      8      -1.5284      2.00000
      9      -1.1076      2.00000
     10       7.7545      0.00000
     11      11.0479      0.00000
     12      12.2840      0.00000
     13      14.6373      0.00000
     14      17.9951      0.00000
     15      23.6832      0.00000
     16      25.2231      0.00000
     17      28.1144      0.00000
     18      30.4055      0.00000

 k-point   212 :      -0.3684    0.4211    0.1579
  band No.  band energies     occupation 
      1     -16.0936      2.00000
      2      -6.8629      2.00000
      3      -6.6623      2.00000
      4      -6.3365      2.00000
      5      -6.0997      2.00000
      6      -5.7216      2.00000
      7      -2.9140      2.00000
      8      -1.7150      2.00000
      9      -1.2128      2.00000
     10       8.0680      0.00000
     11      11.0060      0.00000
     12      12.2921      0.00000
     13      14.2102      0.00000
     14      18.5118      0.00000
     15      23.0704      0.00000
     16      25.5276      0.00000
     17      27.6549      0.00000
     18      30.6235      0.00000

 k-point   213 :      -0.3158    0.4211    0.1579
  band No.  band energies     occupation 
      1     -16.0890      2.00000
      2      -6.8587      2.00000
      3      -6.6590      2.00000
      4      -6.2919      2.00000
      5      -6.1392      2.00000
      6      -5.6595      2.00000
      7      -2.9530      2.00000
      8      -1.8810      2.00000
      9      -1.1669      2.00000
     10       8.3487      0.00000
     11      10.8931      0.00000
     12      12.2325      0.00000
     13      14.0571      0.00000
     14      18.9678      0.00000
     15      22.3879      0.00000
     16      25.9894      0.00000
     17      27.2743      0.00000
     18      30.2412      0.00000

 k-point   214 :      -0.2632    0.4211    0.1579
  band No.  band energies     occupation 
      1     -16.0987      2.00000
      2      -6.8569      2.00000
      3      -6.6826      2.00000
      4      -6.2669      2.00000
      5      -6.1618      2.00000
      6      -5.6631      2.00000
      7      -3.0040      2.00000
      8      -1.9145      2.00000
      9      -1.0145      2.00000
     10       8.5435      0.00000
     11      10.7069      0.00000
     12      12.0753      0.00000
     13      14.2384      0.00000
     14      19.3348      0.00000
     15      21.7683      0.00000
     16      26.5273      0.00000
     17      26.9783      0.00000
     18      29.6148      0.00000

 k-point   215 :      -0.3684    0.4737    0.1579
  band No.  band energies     occupation 
      1     -16.0822      2.00000
      2      -6.8800      2.00000
      3      -6.6205      2.00000
      4      -6.3589      2.00000
      5      -6.0697      2.00000
      6      -5.7491      2.00000
      7      -2.8600      2.00000
      8      -1.5999      2.00000
      9      -1.3867      2.00000
     10       7.7378      0.00000
     11      11.1030      0.00000
     12      12.4938      0.00000
     13      14.2905      0.00000
     14      18.0211      0.00000
     15      24.0636      0.00000
     16      24.9486      0.00000
     17      27.9360      0.00000
     18      30.8315      0.00000

 k-point   216 :      -0.3158    0.4737    0.1579
  band No.  band energies     occupation 
      1     -16.0802      2.00000
      2      -6.8646      2.00000
      3      -6.6331      2.00000
      4      -6.3239      2.00000
      5      -6.1064      2.00000
      6      -5.6859      2.00000
      7      -2.8702      2.00000
      8      -1.7817      2.00000
      9      -1.3533      2.00000
     10       8.0449      0.00000
     11      11.0853      0.00000
     12      12.4479      0.00000
     13      13.9416      0.00000
     14      18.5193      0.00000
     15      23.2448      0.00000
     16      25.3763      0.00000
     17      27.5853      0.00000
     18      30.7692      0.00000

 k-point   217 :      -0.3684    0.4211    0.2105
  band No.  band energies     occupation 
      1     -16.1058      2.00000
      2      -6.8465      2.00000
      3      -6.7066      2.00000
      4      -6.3099      2.00000
      5      -6.1269      2.00000
      6      -5.7207      2.00000
      7      -2.9552      2.00000
      8      -1.7487      2.00000
      9      -1.0762      2.00000
     10       8.3249      0.00000
     11      10.8920      0.00000
     12      12.0901      0.00000
     13      14.2332      0.00000
     14      19.0751      0.00000
     15      22.1684      0.00000
     16      26.0410      0.00000
     17      27.3634      0.00000
     18      29.9520      0.00000

 k-point   218 :      -0.3158    0.4211    0.2105
  band No.  band energies     occupation 
      1     -16.0915      2.00000
      2      -6.8454      2.00000
      3      -6.6810      2.00000
      4      -6.2631      2.00000
      5      -6.1660      2.00000
      6      -5.6563      2.00000
      7      -2.9570      2.00000
      8      -1.8350      2.00000
      9      -1.2160      2.00000
     10       8.4649      0.00000
     11      10.9112      0.00000
     12      12.1801      0.00000
     13      13.8941      0.00000
     14      19.4398      0.00000
     15      21.8340      0.00000
     16      26.4004      0.00000
     17      26.8522      0.00000
     18      30.4460      0.00000

 k-point   219 :      -0.3158    0.4737    0.2105
  band No.  band energies     occupation 
      1     -16.0819      2.00000
      2      -6.8475      2.00000
      3      -6.6572      2.00000
      4      -6.2872      2.00000
      5      -6.1428      2.00000
      6      -5.6602      2.00000
      7      -2.8706      2.00000
      8      -1.7579      2.00000
      9      -1.4406      2.00000
     10       8.2680      0.00000
     11      11.1180      0.00000
     12      12.4024      0.00000
     13      13.6167      0.00000
     14      19.0938      0.00000
     15      22.4594      0.00000
     16      25.8087      0.00000
     17      27.1899      0.00000
     18      30.9973      0.00000

 k-point   220 :      -0.2632    0.4737    0.2105
  band No.  band energies     occupation 
      1     -16.0812      2.00000
      2      -6.8426      2.00000
      3      -6.6608      2.00000
      4      -6.2508      2.00000
      5      -6.1793      2.00000
      6      -5.6363      2.00000
      7      -2.8742      2.00000
      8      -1.8269      2.00000
      9      -1.4279      2.00000
     10       8.4097      0.00000
     11      11.1023      0.00000
     12      12.3752      0.00000
     13      13.4799      0.00000
     14      19.4700      0.00000
     15      21.9667      0.00000
     16      26.2113      0.00000
     17      26.8188      0.00000
     18      30.9583      0.00000


--------------------------------------------------------------------------------------------------------


 soft charge-density along one line, spin component           1
         0         1         2         3         4         5         6         7         8         9
 total charge-density along one line
 
 pseudopotential strength for first ion, spin component:           1
 12.629 -15.402   0.000   0.000   0.000  -0.000  -0.000  -0.000
-15.402  18.806  -0.000  -0.000  -0.000   0.000   0.000   0.000
  0.000  -0.000  -8.906  -0.000  -0.000  10.784   0.000   0.000
  0.000  -0.000  -0.000  -8.906  -0.000   0.000  10.784   0.000
  0.000  -0.000  -0.000  -0.000  -8.906   0.000   0.000  10.784
 -0.000   0.000  10.784   0.000   0.000 -12.924  -0.000  -0.000
 -0.000   0.000   0.000  10.784   0.000  -0.000 -12.924  -0.000
 -0.000   0.000   0.000   0.000  10.784  -0.000  -0.000 -12.924
 total augmentation occupancy for first ion, spin component:           1
  2.550   0.348   0.000  -0.000  -0.000   0.000   0.000  -0.000
  0.348   0.084  -0.000  -0.000   0.000  -0.000  -0.000  -0.000
 -0.000   0.000   2.100   0.000   0.000   0.247  -0.000   0.000
  0.000   0.000  -0.000   2.100  -0.000  -0.000   0.247  -0.000
  0.000  -0.000   0.000  -0.000   2.100   0.000   0.000   0.247
  0.000   0.000   0.247  -0.000   0.000   0.037  -0.000   0.000
  0.000   0.000  -0.000   0.247   0.000  -0.000   0.037   0.000
 -0.000   0.000   0.000  -0.000   0.247   0.000   0.000   0.037


------------------------ aborting loop because EDIFF is reached ----------------------------------------


 


 total charge     
 
# of ion     s       p       d       tot
----------------------------------------
  1        1.544   3.486   0.000   5.030
  2        0.462   0.519  10.092  11.073
------------------------------------------------
tot        2.006   4.005  10.092  16.102
 
    CHARGE:  cpu time    0.0390: real time    0.0394
    FORLOC:  cpu time    0.0000: real time    0.0004
    FORNL :  cpu time    0.0880: real time    0.0884
    STRESS:  cpu time    0.4329: real time    0.4330
    FORCOR:  cpu time    0.0030: real time    0.0041
    FORHAR:  cpu time    0.0020: real time    0.0014
    MIXING:  cpu time    0.0000: real time    0.0004
    OFIELD:  cpu time    0.0010: real time    0.0003

  FORCE on cell =-STRESS in cart. coord.  units (eV):
  Direction    XX          YY          ZZ          XY          YZ          ZX
  --------------------------------------------------------------------------------------
  Alpha Z   123.92738   123.92738   123.92738
  Ewald    -503.65015  -503.65015  -503.65015     0.00000     0.00000    -0.00000
  Hartree   214.10357   214.10357   214.10357     0.00000     0.00000     0.00000
  E(xc)    -103.17520  -103.17520  -103.17520     0.00000     0.00000     0.00000
  Local      79.52639    79.52639    79.52639     0.00013     0.00013     0.00013
  n-local   -61.43582   -61.57229   -60.21191    -1.43834     1.28884    -0.78038
  augment    45.09154    45.09154    45.09154    -0.00011    -0.00012    -0.00012
  Kinetic   206.79175   206.36446   202.52163     4.32387    -3.37921     2.08193
  Fock        0.00000     0.00000     0.00000     0.00000     0.00000     0.00000
  -------------------------------------------------------------------------------------
  Total      -0.02385    -0.02385    -0.02385     0.00000     0.00000    -0.00000
  in kB      -1.69655    -1.69655    -1.69655     0.00000     0.00000    -0.00000
  external pressure =       -1.70 kB  Pullay stress =        0.00 kB


 VOLUME and BASIS-vectors are now :
 -----------------------------------------------------------------------------
  energy-cutoff  :      520.00
  volume of cell :       22.52
      direct lattice vectors                 reciprocal lattice vectors
     0.000000000  2.241414001  2.241414001    -0.223073470  0.223073470  0.223073470
     2.241414001  0.000000000  2.241414001     0.223073470 -0.223073470  0.223073470
     2.241414001  2.241414001  0.000000000     0.223073470  0.223073470 -0.223073470

  length of vectors
     3.169838079  3.169838079  3.169838079     0.386374585  0.386374585  0.386374585


 FORCES acting on ions
    electron-ion (+dipol)            ewald-force                    non-local-force                 convergence-correction
 -----------------------------------------------------------------------------------------------
   0.342E-06 0.342E-06 0.362E-06   0.224E-14 -.776E-14 -.646E-14   -.824E-17 -.434E-17 -.347E-17   0.186E-06 0.186E-06 0.186E-06
   0.221E-05 0.221E-05 0.219E-05   -.221E-14 0.818E-14 0.827E-14   0.694E-17 0.694E-17 0.716E-17   -.150E-05 -.150E-05 -.150E-05
 -----------------------------------------------------------------------------------------------
   0.256E-05 0.256E-05 0.256E-05   0.350E-16 0.415E-15 0.181E-14   -.130E-17 0.260E-17 0.369E-17   -.132E-05 -.132E-05 -.132E-05
 
 
 POSITION                                       TOTAL-FORCE (eV/Angst)
 -----------------------------------------------------------------------------------
      3.36212      3.36212      3.36212         0.000000      0.000000      0.000000
      0.00000      0.00000      0.00000        -0.000000     -0.000000     -0.000000
 -----------------------------------------------------------------------------------
    total drift:                                0.000001      0.000001      0.000001


--------------------------------------------------------------------------------------------------------



  FREE ENERGIE OF THE ION-ELECTRON SYSTEM (eV)
  ---------------------------------------------------
  free  energy   TOTEN  =        -8.93960558 eV

  energy  without entropy=       -8.93960558  energy(sigma->0) =       -8.93960558
 


--------------------------------------------------------------------------------------------------------


    POTLOK:  cpu time    0.0150: real time    0.0162


--------------------------------------------------------------------------------------------------------


     LOOP+:  cpu time   18.7911: real time   19.1814
    4ORBIT:  cpu time    0.0000: real time    0.0000
 


 total charge     
 
# of ion     s       p       d       tot
----------------------------------------
  1        1.544   3.486   0.000   5.030
  2        0.462   0.519  10.092  11.073
------------------------------------------------
tot        2.006   4.005  10.092  16.102
 

 total amount of memory used by VASP on root node    42936. kBytes
========================================================================

   base      :      30000. kBytes
   nonl-proj :       9889. kBytes
   fftplans  :        789. kBytes
   grid      :        406. kBytes
   one-center:         15. kBytes
   wavefun   :       1837. kBytes
 
  
  
 General timing and accounting informations for this job:
 ========================================================
  
                  Total CPU time used (sec):       23.694
                            User time (sec):       20.429
                          System time (sec):        3.266
                         Elapsed time (sec):       24.565
  
                   Maximum memory used (kb):      119868.
                   Average memory used (kb):           0.
  
                          Minor page faults:        46880
                          Major page faults:            2
                 Voluntary context switches:         2155
