 vasp.5.4.1 24Jun15 (build Nov 23 2015 09:58:10) complex                        
  
 executed on             LinuxIFC date 2022.11.04  13:10:21
 running on   48 total cores
 distrk:  each k-point on   48 cores,    1 groups
 distr:  one band on NCORES_PER_BAND=   8 cores,    6 groups


--------------------------------------------------------------------------------------------------------


 INCAR:
 POTCAR:    PAW_PBE O 08Apr2002                   
 POTCAR:    PAW_PBE Pb_d 06Sep2000                
 POTCAR:    PAW_PBE Ti_sv 26Sep2005               
 POTCAR:    PAW_PBE O 08Apr2002                   
   VRHFIN =O: s2p4                                                              
   LEXCH  = PE                                                                  
   EATOM  =   432.3788 eV,   31.7789 Ry                                         
                                                                                
   TITEL  = PAW_PBE O 08Apr2002                                                 
   LULTRA =        F    use ultrasoft PP ?                                      
   IUNSCR =        1    unscreen: 0-lin 1-nonlin 2-no                           
   RPACOR =    1.200    partial core radius                                     
   POMASS =   16.000; ZVAL   =    6.000    mass and valenz                      
   RCORE  =    1.520    outmost cutoff radius                                   
   RWIGS  =    1.550; RWIGS  =    0.820    wigner-seitz radius (au A)           
   ENMAX  =  400.000; ENMIN  =  300.000 eV                                      
   ICORE  =        2    local potential                                         
   LCOR   =        T    correct aug charges                                     
   LPAW   =        T    paw PP                                                  
   EAUG   =  605.392                                                            
   DEXC   =    0.000                                                            
   RMAX   =    1.553    core radius for proj-oper                               
   RAUG   =    1.300    factor for augmentation sphere                          
   RDEP   =    1.550    radius for radial grids                                 
   RDEPT  =    1.329    core radius for aug-charge                              
                                                                                
   Atomic configuration                                                         
    4 entries                                                                   
     n  l   j            E        occ.                                          
     1  0  0.50      -514.6923   2.0000                                         
     2  0  0.50       -23.9615   2.0000                                         
     2  1  0.50        -9.0305   4.0000                                         
     3  2  1.50        -9.5241   0.0000                                         
   Description                                                                  
     l       E           TYP  RCUT    TYP  RCUT                                 
     0    -23.9615318     23  1.200                                             
     0     -9.5240782     23  1.200                                             
     1     -9.0304911     23  1.520                                             
     1      8.1634956     23  1.520                                             
     2     -9.5240782      7  1.500                                             
  local pseudopotential read in
  partial core-charges read in
  partial kinetic energy density read in
  kinetic energy density of atom read in
  atomic valenz-charges read in
  non local Contribution for L=           0  read in
    real space projection operators read in
  non local Contribution for L=           0  read in
    real space projection operators read in
  non local Contribution for L=           1  read in
    real space projection operators read in
  non local Contribution for L=           1  read in
    real space projection operators read in
    PAW grid and wavefunctions read in
 
   number of l-projection  operators is LMAX  =           4
   number of lm-projection operators is LMMAX =           8
 
 POTCAR:    PAW_PBE Pb_d 06Sep2000                
   VRHFIN =Pb:                                                                  
   LEXCH  = PE                                                                  
   EATOM  =  1661.6185 eV,  122.1255 Ry                                         
                                                                                
   TITEL  = PAW_PBE Pb_d 06Sep2000                                              
   LULTRA =        F    use ultrasoft PP ?                                      
   IUNSCR =        1    unscreen: 0-lin 1-nonlin 2-no                           
   RPACOR =    2.200    partial core radius                                     
   POMASS =  207.200; ZVAL   =   14.000    mass and valenz                      
   RCORE  =    2.500    outmost cutoff radius                                   
   RWIGS  =    3.260; RWIGS  =    1.725    wigner-seitz radius (au A)           
   ENMAX  =  237.835; ENMIN  =  178.376 eV                                      
   ICORE  =        3    local potential                                         
   LCOR   =        T    correct aug charges                                     
   LPAW   =        T    paw PP                                                  
   EAUG   =  391.914                                                            
   DEXC   =    0.000                                                            
   RMAX   =    2.565    core radius for proj-oper                               
   RAUG   =    1.300    factor for augmentation sphere                          
   RDEP   =    2.643    radius for radial grids                                 
   RDEPT  =    2.092    core radius for aug-charge                              
                                                                                
   Atomic configuration                                                         
   16 entries                                                                   
     n  l   j            E        occ.                                          
     1  0  0.50    -88091.8466   2.0000                                         
     2  0  0.50    -15753.4197   2.0000                                         
     2  1  1.50    -13508.1797   6.0000                                         
     3  0  0.50     -3781.7194   2.0000                                         
     3  1  1.50     -3138.2529   6.0000                                         
     3  2  2.50     -2483.2977  10.0000                                         
     4  0  0.50      -856.2895   2.0000                                         
     4  1  1.50      -645.4942   6.0000                                         
     4  2  2.50      -401.8768  10.0000                                         
     4  3  3.50      -132.9059  14.0000                                         
     5  0  0.50      -144.0950   2.0000                                         
     5  1  1.50       -85.7879   6.0000                                         
     5  2  2.50       -21.1769  10.0000                                         
     6  0  0.50       -12.0372   2.0000                                         
     6  1  1.50        -3.4971   2.0000                                         
     5  3  2.50        -2.7212   0.0000                                         
   Description                                                                  
     l       E           TYP  RCUT    TYP  RCUT                                 
     2    -21.1768523     23  2.500                                             
     2      1.3605826     23  2.500                                             
     0    -12.0371562     23  2.500                                             
     0     13.6058260     23  2.500                                             
     1     -3.4971339     23  2.500                                             
     1     13.6058260     23  2.500                                             
     3     -1.3605826      7  2.500                                             
  local pseudopotential read in
  partial core-charges read in
  partial kinetic energy density read in
  atomic valenz-charges read in
  non local Contribution for L=           2  read in
    real space projection operators read in
  non local Contribution for L=           2  read in
    real space projection operators read in
  non local Contribution for L=           0  read in
    real space projection operators read in
  non local Contribution for L=           0  read in
    real space projection operators read in
  non local Contribution for L=           1  read in
    real space projection operators read in
  non local Contribution for L=           1  read in
    real space projection operators read in
    PAW grid and wavefunctions read in
 
   number of l-projection  operators is LMAX  =           6
   number of lm-projection operators is LMMAX =          18
 
 POTCAR:    PAW_PBE Ti_sv 26Sep2005               
   VRHFIN =Ti: 3p4s3d                                                           
   LEXCH  = PE                                                                  
   EATOM  =  1588.0892 eV,  116.7213 Ry                                         
                                                                                
   TITEL  = PAW_PBE Ti_sv 26Sep2005                                             
   LULTRA =        F    use ultrasoft PP ?                                      
   IUNSCR =        1    unscreen: 0-lin 1-nonlin 2-no                           
   RPACOR =    2.000    partial core radius                                     
   POMASS =   47.880; ZVAL   =   12.000    mass and valenz                      
   RCORE  =    2.300    outmost cutoff radius                                   
   RWIGS  =    2.300; RWIGS  =    1.217    wigner-seitz radius (au A)           
   ENMAX  =  274.610; ENMIN  =  205.957 eV                                      
   ICORE  =        3    local potential                                         
   LCOR   =        T    correct aug charges                                     
   LPAW   =        T    paw PP                                                  
   EAUG   =  482.848                                                            
   RMAX   =    2.348    core radius for proj-oper                               
   RAUG   =    1.300    factor for augmentation sphere                          
   RDEP   =    2.381    radius for radial grids                                 
   RDEPT  =    1.930    core radius for aug-charge                              
                                                                                
   Atomic configuration                                                         
    8 entries                                                                   
     n  l   j            E        occ.                                          
     1  0  0.50     -4865.3608   2.0000                                         
     2  0  0.50      -533.1368   2.0000                                         
     2  1  1.50      -440.5031   6.0000                                         
     3  0  0.50       -59.3186   2.0000                                         
     4  0  0.50        -3.7291   1.0000                                         
     3  1  1.50       -35.7012   6.0000                                         
     3  2  2.50        -1.9157   3.0000                                         
     4  3  2.50        -1.3606   0.0000                                         
   Description                                                                  
     l       E           TYP  RCUT    TYP  RCUT                                 
     0    -59.3185931     23  1.800                                             
     0     -3.7290822     23  2.300                                             
     1    -35.7012045     23  2.300                                             
     1     -1.3605826     23  2.300                                             
     2     -1.9156920     23  2.300                                             
     2     -0.0236318     23  2.300                                             
     3     -1.3605826     23  2.300                                             
  local pseudopotential read in
  partial core-charges read in
  partial kinetic energy density read in
  atomic valenz-charges read in
  non local Contribution for L=           0  read in
    real space projection operators read in
  non local Contribution for L=           0  read in
    real space projection operators read in
  non local Contribution for L=           1  read in
    real space projection operators read in
  non local Contribution for L=           1  read in
    real space projection operators read in
  non local Contribution for L=           2  read in
    real space projection operators read in
  non local Contribution for L=           2  read in
    real space projection operators read in
    PAW grid and wavefunctions read in
 
   number of l-projection  operators is LMAX  =           6
   number of lm-projection operators is LMMAX =          18
 
  PAW_PBE O 08Apr2002                   :
 energy of atom  1       EATOM= -432.3788
 kinetic energy error for atom=    0.0208 (will be added to EATOM!!)
  PAW_PBE Pb_d 06Sep2000                :
 energy of atom  2       EATOM=-1661.6185
 kinetic energy error for atom=    0.0037 (will be added to EATOM!!)
  PAW_PBE Ti_sv 26Sep2005               :
 energy of atom  3       EATOM=-1588.0892
 kinetic energy error for atom=    0.0042 (will be added to EATOM!!)
 
 
 POSCAR: Primitive Cell                          
  positions in direct lattice
  No initial velocities read in
 exchange correlation table for  LEXCH =        8
   RHO(1)=    0.500       N(1)  =     2000
   RHO(2)=  100.500       N(2)  =     4000
 


--------------------------------------------------------------------------------------------------------


 ion  position               nearest neighbor table
   1  0.000  0.500  0.612-   5 2.01   5 2.01   4 2.59   4 2.59
   2  0.500  0.000  0.612-   5 2.01   5 2.01   4 2.59   4 2.59
   3  0.500  0.500  0.100-   5 1.87   5 2.22   4 2.84   4 2.84   4 2.84   4 2.84
   4  0.000  0.000  0.016-   1 2.59   2 2.59   1 2.59   2 2.59   3 2.84   3 2.84   3 2.84   3 2.84
                             5 3.39   5 3.39   5 3.39   5 3.39
   5  0.500  0.500  0.558-   3 1.87   2 2.01   1 2.01   2 2.01   1 2.01   3 2.22   4 3.39   4 3.39
                             4 3.39   4 3.39
 
  LATTYP: Found a simple tetragonal cell.
 ALAT       =     3.9882456926
 C/A-ratio  =     1.0262016854
  
  Lattice vectors:
  
 A1 = (   3.9882456926,   0.0000000000,   0.0000000000)
 A2 = (   0.0000000000,   3.9882456926,   0.0000000000)
 A3 = (   0.0000000000,   0.0000000000,   4.0927444516)


Analysis of symmetry for initial positions (statically):
=====================================================================
 Subroutine PRICEL returns:
 Original cell was already a primitive cell.
 

 Routine SETGRP: Setting up the symmetry group for a 
 simple tetragonal supercell.


 Subroutine GETGRP returns: Found  8 space group operations
 (whereof  8 operations were pure point group operations)
 out of a pool of 16 trial point group operations.


The static configuration has the point symmetry C_4v.


Analysis of symmetry for dynamics (positions and initial velocities):
=====================================================================
 Subroutine PRICEL returns:
 Original cell was already a primitive cell.
 

 Routine SETGRP: Setting up the symmetry group for a 
 simple tetragonal supercell.


 Subroutine GETGRP returns: Found  8 space group operations
 (whereof  8 operations were pure point group operations)
 out of a pool of 16 trial point group operations.


The dynamic configuration has the point symmetry C_4v.
 
 
 KPOINTS: 0.030   8   8   8   75  0.040  187    9 
  k-points in reciprocal lattice
Space group operators:
 irot       det(A)        alpha          n_x          n_y          n_z        tau_x        tau_y        tau_z
    1     1.000000     0.000000     1.000000     0.000000     0.000000     0.000000     0.000000     0.000000
    2     1.000000    90.000000     0.000000     0.000000    -1.000000     0.000000     0.000000     0.000000
    3     1.000000   180.000000     0.000000     0.000000     1.000000     0.000000     0.000000     0.000000
    4     1.000000    90.000000     0.000000     0.000000     1.000000     0.000000     0.000000     0.000000
    5    -1.000000   179.999999     0.000000     1.000000     0.000000     0.000000     0.000000     0.000000
    6    -1.000000   180.000000     0.707107     0.707107     0.000000     0.000000     0.000000     0.000000
    7    -1.000000   180.000000     1.000000     0.000000     0.000000     0.000000     0.000000     0.000000
    8    -1.000000   180.000000     0.707107    -0.707107     0.000000     0.000000     0.000000     0.000000

 ----------------------------------------------------------------------------- 
|                                                                             |
|           W    W    AA    RRRRR   N    N  II  N    N   GGGG   !!!           |
|           W    W   A  A   R    R  NN   N  II  NN   N  G    G  !!!           |
|           W    W  A    A  R    R  N N  N  II  N N  N  G       !!!           |
|           W WW W  AAAAAA  RRRRR   N  N N  II  N  N N  G  GGG   !            |
|           WW  WW  A    A  R   R   N   NN  II  N   NN  G    G                |
|           W    W  A    A  R    R  N    N  II  N    N   GGGG   !!!           |
|                                                                             |
|      Your generating k-point grid is not commensurate to the symmetry       |
|      of the lattice.  This can cause   slow convergence with respect        |
|      to k-points for HF type calculations                                   |
|      suggested SOLUTIONS:                                                   |
|       ) if not already the case, use automatic k-point generation           |
|       ) shift your grid to Gamma (G) (e.g. required for hex or fcc lattice) |
|                                                                             |
 ----------------------------------------------------------------------------- 

 
 Subroutine IBZKPT_HF returns following result:
 ==============================================
 
 Found    699 k-points in 1st BZ
 the following    699 k-points will be used (e.g. in the exchange kernel)
 Following reciprocal coordinates:   # in IRBZ
  0.000000  0.000000  0.000000    0.00195312   1 t-inv F
  0.125000  0.000000  0.000000    0.00195312   2 t-inv F
  0.250000  0.000000  0.000000    0.00195312   3 t-inv F
  0.375000  0.000000  0.000000    0.00195312   4 t-inv F
  0.500000  0.000000  0.000000    0.00195312   5 t-inv F
  0.125000  0.125000  0.000000    0.00195312   6 t-inv F
  0.250000  0.125000  0.000000    0.00195312   7 t-inv F
  0.375000  0.125000  0.000000    0.00195312   8 t-inv F
  0.500000  0.125000  0.000000    0.00195312   9 t-inv F
  0.250000  0.250000  0.000000    0.00195312  10 t-inv F
  0.375000  0.250000  0.000000    0.00195312  11 t-inv F
  0.500000  0.250000  0.000000    0.00195312  12 t-inv F
  0.375000  0.375000  0.000000    0.00195312  13 t-inv F
  0.500000  0.375000  0.000000    0.00195312  14 t-inv F
  0.500000  0.500000  0.000000    0.00195312  15 t-inv F
  0.000000  0.000000  0.125000    0.00195312  16 t-inv F
  0.125000  0.000000  0.125000    0.00195312  17 t-inv F
  0.250000  0.000000  0.125000    0.00195312  18 t-inv F
  0.375000  0.000000  0.125000    0.00195312  19 t-inv F
  0.500000  0.000000  0.125000    0.00195312  20 t-inv F
  0.125000  0.125000  0.125000    0.00195312  21 t-inv F
  0.250000  0.125000  0.125000    0.00195312  22 t-inv F
  0.375000  0.125000  0.125000    0.00195312  23 t-inv F
  0.500000  0.125000  0.125000    0.00195312  24 t-inv F
  0.250000  0.250000  0.125000    0.00195312  25 t-inv F
  0.375000  0.250000  0.125000    0.00195312  26 t-inv F
  0.500000  0.250000  0.125000    0.00195312  27 t-inv F
  0.375000  0.375000  0.125000    0.00195312  28 t-inv F
  0.500000  0.375000  0.125000    0.00195312  29 t-inv F
  0.500000  0.500000  0.125000    0.00195312  30 t-inv F
  0.000000  0.000000  0.250000    0.00195312  31 t-inv F
  0.125000  0.000000  0.250000    0.00195312  32 t-inv F
  0.250000  0.000000  0.250000    0.00195312  33 t-inv F
  0.375000  0.000000  0.250000    0.00195312  34 t-inv F
  0.500000  0.000000  0.250000    0.00195312  35 t-inv F
  0.125000  0.125000  0.250000    0.00195312  36 t-inv F
  0.250000  0.125000  0.250000    0.00195312  37 t-inv F
  0.375000  0.125000  0.250000    0.00195312  38 t-inv F
  0.500000  0.125000  0.250000    0.00195312  39 t-inv F
  0.250000  0.250000  0.250000    0.00195312  40 t-inv F
  0.375000  0.250000  0.250000    0.00195312  41 t-inv F
  0.500000  0.250000  0.250000    0.00195312  42 t-inv F
  0.375000  0.375000  0.250000    0.00195312  43 t-inv F
  0.500000  0.375000  0.250000    0.00195312  44 t-inv F
  0.500000  0.500000  0.250000    0.00195312  45 t-inv F
  0.000000  0.000000  0.375000    0.00195312  46 t-inv F
  0.125000  0.000000  0.375000    0.00195312  47 t-inv F
  0.250000  0.000000  0.375000    0.00195312  48 t-inv F
  0.375000  0.000000  0.375000    0.00195312  49 t-inv F
  0.500000  0.000000  0.375000    0.00195312  50 t-inv F
  0.125000  0.125000  0.375000    0.00195312  51 t-inv F
  0.250000  0.125000  0.375000    0.00195312  52 t-inv F
  0.375000  0.125000  0.375000    0.00195312  53 t-inv F
  0.500000  0.125000  0.375000    0.00195312  54 t-inv F
  0.250000  0.250000  0.375000    0.00195312  55 t-inv F
  0.375000  0.250000  0.375000    0.00195312  56 t-inv F
  0.500000  0.250000  0.375000    0.00195312  57 t-inv F
  0.375000  0.375000  0.375000    0.00195312  58 t-inv F
  0.500000  0.375000  0.375000    0.00195312  59 t-inv F
  0.500000  0.500000  0.375000    0.00195312  60 t-inv F
  0.000000  0.000000  0.500000    0.00195312  61 t-inv F
  0.125000  0.000000  0.500000    0.00195312  62 t-inv F
  0.250000  0.000000  0.500000    0.00195312  63 t-inv F
  0.375000  0.000000  0.500000    0.00195312  64 t-inv F
  0.500000  0.000000  0.500000    0.00195312  65 t-inv F
  0.125000  0.125000  0.500000    0.00195312  66 t-inv F
  0.250000  0.125000  0.500000    0.00195312  67 t-inv F
  0.375000  0.125000  0.500000    0.00195312  68 t-inv F
  0.500000  0.125000  0.500000    0.00195312  69 t-inv F
  0.250000  0.250000  0.500000    0.00195312  70 t-inv F
  0.375000  0.250000  0.500000    0.00195312  71 t-inv F
  0.500000  0.250000  0.500000    0.00195312  72 t-inv F
  0.375000  0.375000  0.500000    0.00195312  73 t-inv F
  0.500000  0.375000  0.500000    0.00195312  74 t-inv F
  0.500000  0.500000  0.500000    0.00195312  75 t-inv F
  0.000000  0.000000  0.000000    0.00000000  76 t-inv F
  0.000000  0.027778  0.000000    0.00000000  77 t-inv F
  0.000000  0.055556  0.000000    0.00000000  78 t-inv F
  0.000000  0.083333  0.000000    0.00000000  79 t-inv F
  0.000000  0.111111  0.000000    0.00000000  80 t-inv F
  0.000000  0.138889  0.000000    0.00000000  81 t-inv F
  0.000000  0.166667  0.000000    0.00000000  82 t-inv F
  0.000000  0.194444  0.000000    0.00000000  83 t-inv F
  0.000000  0.222222  0.000000    0.00000000  84 t-inv F
  0.000000  0.250000  0.000000    0.00000000  85 t-inv F
  0.000000  0.277778  0.000000    0.00000000  86 t-inv F
  0.000000  0.305556  0.000000    0.00000000  87 t-inv F
  0.000000  0.333333  0.000000    0.00000000  88 t-inv F
  0.000000  0.361111  0.000000    0.00000000  89 t-inv F
  0.000000  0.388889  0.000000    0.00000000  90 t-inv F
  0.000000  0.416667  0.000000    0.00000000  91 t-inv F
  0.000000  0.444444  0.000000    0.00000000  92 t-inv F
  0.000000  0.472222  0.000000    0.00000000  93 t-inv F
  0.000000  0.500000  0.000000    0.00000000  94 t-inv F
  0.000000  0.500000  0.000000    0.00000000  95 t-inv F
  0.027778  0.500000  0.000000    0.00000000  96 t-inv F
  0.055556  0.500000  0.000000    0.00000000  97 t-inv F
  0.083333  0.500000  0.000000    0.00000000  98 t-inv F
  0.111111  0.500000  0.000000    0.00000000  99 t-inv F
  0.138889  0.500000  0.000000    0.00000000 100 t-inv F
  0.166667  0.500000  0.000000    0.00000000 101 t-inv F
  0.194444  0.500000  0.000000    0.00000000 102 t-inv F
  0.222222  0.500000  0.000000    0.00000000 103 t-inv F
  0.250000  0.500000  0.000000    0.00000000 104 t-inv F
  0.277778  0.500000  0.000000    0.00000000 105 t-inv F
  0.305556  0.500000  0.000000    0.00000000 106 t-inv F
  0.333333  0.500000  0.000000    0.00000000 107 t-inv F
  0.361111  0.500000  0.000000    0.00000000 108 t-inv F
  0.388889  0.500000  0.000000    0.00000000 109 t-inv F
  0.416667  0.500000  0.000000    0.00000000 110 t-inv F
  0.444444  0.500000  0.000000    0.00000000 111 t-inv F
  0.472222  0.500000  0.000000    0.00000000 112 t-inv F
  0.500000  0.500000  0.000000    0.00000000 113 t-inv F
  0.500000  0.500000  0.000000    0.00000000 114 t-inv F
  0.480769  0.480769  0.000000    0.00000000 115 t-inv F
  0.461538  0.461538  0.000000    0.00000000 116 t-inv F
  0.442308  0.442308  0.000000    0.00000000 117 t-inv F
  0.423077  0.423077  0.000000    0.00000000 118 t-inv F
  0.403846  0.403846  0.000000    0.00000000 119 t-inv F
  0.384615  0.384615  0.000000    0.00000000 120 t-inv F
  0.365385  0.365385  0.000000    0.00000000 121 t-inv F
  0.346154  0.346154  0.000000    0.00000000 122 t-inv F
  0.326923  0.326923  0.000000    0.00000000 123 t-inv F
  0.307692  0.307692  0.000000    0.00000000 124 t-inv F
  0.288462  0.288462  0.000000    0.00000000 125 t-inv F
  0.269231  0.269231  0.000000    0.00000000 126 t-inv F
  0.250000  0.250000  0.000000    0.00000000 127 t-inv F
  0.230769  0.230769  0.000000    0.00000000 128 t-inv F
  0.211538  0.211538  0.000000    0.00000000 129 t-inv F
  0.192308  0.192308  0.000000    0.00000000 130 t-inv F
  0.173077  0.173077  0.000000    0.00000000 131 t-inv F
  0.153846  0.153846  0.000000    0.00000000 132 t-inv F
  0.134615  0.134615  0.000000    0.00000000 133 t-inv F
  0.115385  0.115385  0.000000    0.00000000 134 t-inv F
  0.096154  0.096154  0.000000    0.00000000 135 t-inv F
  0.076923  0.076923  0.000000    0.00000000 136 t-inv F
  0.057692  0.057692  0.000000    0.00000000 137 t-inv F
  0.038462  0.038462  0.000000    0.00000000 138 t-inv F
  0.019231  0.019231  0.000000    0.00000000 139 t-inv F
  0.000000  0.000000  0.000000    0.00000000 140 t-inv F
  0.000000  0.000000  0.000000    0.00000000 141 t-inv F
  0.000000  0.000000  0.027778    0.00000000 142 t-inv F
  0.000000  0.000000  0.055556    0.00000000 143 t-inv F
  0.000000  0.000000  0.083333    0.00000000 144 t-inv F
  0.000000  0.000000  0.111111    0.00000000 145 t-inv F
  0.000000  0.000000  0.138889    0.00000000 146 t-inv F
  0.000000  0.000000  0.166667    0.00000000 147 t-inv F
  0.000000  0.000000  0.194444    0.00000000 148 t-inv F
  0.000000  0.000000  0.222222    0.00000000 149 t-inv F
  0.000000  0.000000  0.250000    0.00000000 150 t-inv F
  0.000000  0.000000  0.277778    0.00000000 151 t-inv F
  0.000000  0.000000  0.305556    0.00000000 152 t-inv F
  0.000000  0.000000  0.333333    0.00000000 153 t-inv F
  0.000000  0.000000  0.361111    0.00000000 154 t-inv F
  0.000000  0.000000  0.388889    0.00000000 155 t-inv F
  0.000000  0.000000  0.416667    0.00000000 156 t-inv F
  0.000000  0.000000  0.444444    0.00000000 157 t-inv F
  0.000000  0.000000  0.472222    0.00000000 158 t-inv F
  0.000000  0.000000  0.500000    0.00000000 159 t-inv F
  0.000000  0.000000  0.500000    0.00000000 160 t-inv F
  0.000000  0.027778  0.500000    0.00000000 161 t-inv F
  0.000000  0.055556  0.500000    0.00000000 162 t-inv F
  0.000000  0.083333  0.500000    0.00000000 163 t-inv F
  0.000000  0.111111  0.500000    0.00000000 164 t-inv F
  0.000000  0.138889  0.500000    0.00000000 165 t-inv F
  0.000000  0.166667  0.500000    0.00000000 166 t-inv F
  0.000000  0.194444  0.500000    0.00000000 167 t-inv F
  0.000000  0.222222  0.500000    0.00000000 168 t-inv F
  0.000000  0.250000  0.500000    0.00000000 169 t-inv F
  0.000000  0.277778  0.500000    0.00000000 170 t-inv F
  0.000000  0.305556  0.500000    0.00000000 171 t-inv F
  0.000000  0.333333  0.500000    0.00000000 172 t-inv F
  0.000000  0.361111  0.500000    0.00000000 173 t-inv F
  0.000000  0.388889  0.500000    0.00000000 174 t-inv F
  0.000000  0.416667  0.500000    0.00000000 175 t-inv F
  0.000000  0.444444  0.500000    0.00000000 176 t-inv F
  0.000000  0.472222  0.500000    0.00000000 177 t-inv F
  0.000000  0.500000  0.500000    0.00000000 178 t-inv F
  0.000000  0.500000  0.500000    0.00000000 179 t-inv F
  0.027778  0.500000  0.500000    0.00000000 180 t-inv F
  0.055556  0.500000  0.500000    0.00000000 181 t-inv F
  0.083333  0.500000  0.500000    0.00000000 182 t-inv F
  0.111111  0.500000  0.500000    0.00000000 183 t-inv F
  0.138889  0.500000  0.500000    0.00000000 184 t-inv F
  0.166667  0.500000  0.500000    0.00000000 185 t-inv F
  0.194444  0.500000  0.500000    0.00000000 186 t-inv F
  0.222222  0.500000  0.500000    0.00000000 187 t-inv F
  0.250000  0.500000  0.500000    0.00000000 188 t-inv F
  0.277778  0.500000  0.500000    0.00000000 189 t-inv F
  0.305556  0.500000  0.500000    0.00000000 190 t-inv F
  0.333333  0.500000  0.500000    0.00000000 191 t-inv F
  0.361111  0.500000  0.500000    0.00000000 192 t-inv F
  0.388889  0.500000  0.500000    0.00000000 193 t-inv F
  0.416667  0.500000  0.500000    0.00000000 194 t-inv F
  0.444444  0.500000  0.500000    0.00000000 195 t-inv F
  0.472222  0.500000  0.500000    0.00000000 196 t-inv F
  0.500000  0.500000  0.500000    0.00000000 197 t-inv F
  0.500000  0.500000  0.500000    0.00000000 198 t-inv F
  0.480769  0.480769  0.500000    0.00000000 199 t-inv F
  0.461538  0.461538  0.500000    0.00000000 200 t-inv F
  0.442308  0.442308  0.500000    0.00000000 201 t-inv F
  0.423077  0.423077  0.500000    0.00000000 202 t-inv F
  0.403846  0.403846  0.500000    0.00000000 203 t-inv F
  0.384615  0.384615  0.500000    0.00000000 204 t-inv F
  0.365385  0.365385  0.500000    0.00000000 205 t-inv F
  0.346154  0.346154  0.500000    0.00000000 206 t-inv F
  0.326923  0.326923  0.500000    0.00000000 207 t-inv F
  0.307692  0.307692  0.500000    0.00000000 208 t-inv F
  0.288462  0.288462  0.500000    0.00000000 209 t-inv F
  0.269231  0.269231  0.500000    0.00000000 210 t-inv F
  0.250000  0.250000  0.500000    0.00000000 211 t-inv F
  0.230769  0.230769  0.500000    0.00000000 212 t-inv F
  0.211538  0.211538  0.500000    0.00000000 213 t-inv F
  0.192308  0.192308  0.500000    0.00000000 214 t-inv F
  0.173077  0.173077  0.500000    0.00000000 215 t-inv F
  0.153846  0.153846  0.500000    0.00000000 216 t-inv F
  0.134615  0.134615  0.500000    0.00000000 217 t-inv F
  0.115385  0.115385  0.500000    0.00000000 218 t-inv F
  0.096154  0.096154  0.500000    0.00000000 219 t-inv F
  0.076923  0.076923  0.500000    0.00000000 220 t-inv F
  0.057692  0.057692  0.500000    0.00000000 221 t-inv F
  0.038462  0.038462  0.500000    0.00000000 222 t-inv F
  0.019231  0.019231  0.500000    0.00000000 223 t-inv F
  0.000000  0.000000  0.500000    0.00000000 224 t-inv F
  0.000000  0.500000  0.000000    0.00000000 225 t-inv F
  0.000000  0.500000  0.027778    0.00000000 226 t-inv F
  0.000000  0.500000  0.055556    0.00000000 227 t-inv F
  0.000000  0.500000  0.083333    0.00000000 228 t-inv F
  0.000000  0.500000  0.111111    0.00000000 229 t-inv F
  0.000000  0.500000  0.138889    0.00000000 230 t-inv F
  0.000000  0.500000  0.166667    0.00000000 231 t-inv F
  0.000000  0.500000  0.194444    0.00000000 232 t-inv F
  0.000000  0.500000  0.222222    0.00000000 233 t-inv F
  0.000000  0.500000  0.250000    0.00000000 234 t-inv F
  0.000000  0.500000  0.277778    0.00000000 235 t-inv F
  0.000000  0.500000  0.305556    0.00000000 236 t-inv F
  0.000000  0.500000  0.333333    0.00000000 237 t-inv F
  0.000000  0.500000  0.361111    0.00000000 238 t-inv F
  0.000000  0.500000  0.388889    0.00000000 239 t-inv F
  0.000000  0.500000  0.416667    0.00000000 240 t-inv F
  0.000000  0.500000  0.444444    0.00000000 241 t-inv F
  0.000000  0.500000  0.472222    0.00000000 242 t-inv F
  0.000000  0.500000  0.500000    0.00000000 243 t-inv F
  0.500000  0.500000  0.000000    0.00000000 244 t-inv F
  0.500000  0.500000  0.027778    0.00000000 245 t-inv F
  0.500000  0.500000  0.055556    0.00000000 246 t-inv F
  0.500000  0.500000  0.083333    0.00000000 247 t-inv F
  0.500000  0.500000  0.111111    0.00000000 248 t-inv F
  0.500000  0.500000  0.138889    0.00000000 249 t-inv F
  0.500000  0.500000  0.166667    0.00000000 250 t-inv F
  0.500000  0.500000  0.194444    0.00000000 251 t-inv F
  0.500000  0.500000  0.222222    0.00000000 252 t-inv F
  0.500000  0.500000  0.250000    0.00000000 253 t-inv F
  0.500000  0.500000  0.277778    0.00000000 254 t-inv F
  0.500000  0.500000  0.305556    0.00000000 255 t-inv F
  0.500000  0.500000  0.333333    0.00000000 256 t-inv F
  0.500000  0.500000  0.361111    0.00000000 257 t-inv F
  0.500000  0.500000  0.388889    0.00000000 258 t-inv F
  0.500000  0.500000  0.416667    0.00000000 259 t-inv F
  0.500000  0.500000  0.444444    0.00000000 260 t-inv F
  0.500000  0.500000  0.472222    0.00000000 261 t-inv F
  0.500000  0.500000  0.500000    0.00000000 262 t-inv F
  0.000000  0.125000  0.000000    0.00195312   2 t-inv F
 -0.125000  0.000000  0.000000    0.00195312   2 t-inv F
  0.000000 -0.125000  0.000000    0.00195312   2 t-inv F
  0.000000  0.250000  0.000000    0.00195312   3 t-inv F
 -0.250000  0.000000  0.000000    0.00195312   3 t-inv F
  0.000000 -0.250000  0.000000    0.00195312   3 t-inv F
  0.000000  0.375000  0.000000    0.00195312   4 t-inv F
 -0.375000  0.000000  0.000000    0.00195312   4 t-inv F
  0.000000 -0.375000  0.000000    0.00195312   4 t-inv F
  0.000000  0.500000  0.000000    0.00195312   5 t-inv F
 -0.125000  0.125000  0.000000    0.00195312   6 t-inv F
 -0.125000 -0.125000  0.000000    0.00195312   6 t-inv F
  0.125000 -0.125000  0.000000    0.00195312   6 t-inv F
 -0.125000  0.250000  0.000000    0.00195312   7 t-inv F
 -0.250000 -0.125000  0.000000    0.00195312   7 t-inv F
  0.125000 -0.250000  0.000000    0.00195312   7 t-inv F
  0.250000 -0.125000  0.000000    0.00195312   7 t-inv F
 -0.125000 -0.250000  0.000000    0.00195312   7 t-inv F
 -0.250000  0.125000  0.000000    0.00195312   7 t-inv F
  0.125000  0.250000  0.000000    0.00195312   7 t-inv F
 -0.125000  0.375000  0.000000    0.00195312   8 t-inv F
 -0.375000 -0.125000  0.000000    0.00195312   8 t-inv F
  0.125000 -0.375000  0.000000    0.00195312   8 t-inv F
  0.375000 -0.125000  0.000000    0.00195312   8 t-inv F
 -0.125000 -0.375000  0.000000    0.00195312   8 t-inv F
 -0.375000  0.125000  0.000000    0.00195312   8 t-inv F
  0.125000  0.375000  0.000000    0.00195312   8 t-inv F
 -0.125000  0.500000  0.000000    0.00195312   9 t-inv F
 -0.500000 -0.125000  0.000000    0.00195312   9 t-inv F
  0.125000 -0.500000  0.000000    0.00195312   9 t-inv F
 -0.250000  0.250000  0.000000    0.00195312  10 t-inv F
 -0.250000 -0.250000  0.000000    0.00195312  10 t-inv F
  0.250000 -0.250000  0.000000    0.00195312  10 t-inv F
 -0.250000  0.375000  0.000000    0.00195312  11 t-inv F
 -0.375000 -0.250000  0.000000    0.00195312  11 t-inv F
  0.250000 -0.375000  0.000000    0.00195312  11 t-inv F
  0.375000 -0.250000  0.000000    0.00195312  11 t-inv F
 -0.250000 -0.375000  0.000000    0.00195312  11 t-inv F
 -0.375000  0.250000  0.000000    0.00195312  11 t-inv F
  0.250000  0.375000  0.000000    0.00195312  11 t-inv F
 -0.250000  0.500000  0.000000    0.00195312  12 t-inv F
 -0.500000 -0.250000  0.000000    0.00195312  12 t-inv F
  0.250000 -0.500000  0.000000    0.00195312  12 t-inv F
 -0.375000  0.375000  0.000000    0.00195312  13 t-inv F
 -0.375000 -0.375000  0.000000    0.00195312  13 t-inv F
  0.375000 -0.375000  0.000000    0.00195312  13 t-inv F
 -0.375000  0.500000  0.000000    0.00195312  14 t-inv F
 -0.500000 -0.375000  0.000000    0.00195312  14 t-inv F
  0.375000 -0.500000  0.000000    0.00195312  14 t-inv F
  0.000000  0.125000  0.125000    0.00195312  17 t-inv F
 -0.125000  0.000000  0.125000    0.00195312  17 t-inv F
  0.000000 -0.125000  0.125000    0.00195312  17 t-inv F
  0.000000  0.250000  0.125000    0.00195312  18 t-inv F
 -0.250000  0.000000  0.125000    0.00195312  18 t-inv F
  0.000000 -0.250000  0.125000    0.00195312  18 t-inv F
  0.000000  0.375000  0.125000    0.00195312  19 t-inv F
 -0.375000  0.000000  0.125000    0.00195312  19 t-inv F
  0.000000 -0.375000  0.125000    0.00195312  19 t-inv F
  0.000000  0.500000  0.125000    0.00195312  20 t-inv F
 -0.125000  0.125000  0.125000    0.00195312  21 t-inv F
 -0.125000 -0.125000  0.125000    0.00195312  21 t-inv F
  0.125000 -0.125000  0.125000    0.00195312  21 t-inv F
 -0.125000  0.250000  0.125000    0.00195312  22 t-inv F
 -0.250000 -0.125000  0.125000    0.00195312  22 t-inv F
  0.125000 -0.250000  0.125000    0.00195312  22 t-inv F
  0.250000 -0.125000  0.125000    0.00195312  22 t-inv F
 -0.125000 -0.250000  0.125000    0.00195312  22 t-inv F
 -0.250000  0.125000  0.125000    0.00195312  22 t-inv F
  0.125000  0.250000  0.125000    0.00195312  22 t-inv F
 -0.125000  0.375000  0.125000    0.00195312  23 t-inv F
 -0.375000 -0.125000  0.125000    0.00195312  23 t-inv F
  0.125000 -0.375000  0.125000    0.00195312  23 t-inv F
  0.375000 -0.125000  0.125000    0.00195312  23 t-inv F
 -0.125000 -0.375000  0.125000    0.00195312  23 t-inv F
 -0.375000  0.125000  0.125000    0.00195312  23 t-inv F
  0.125000  0.375000  0.125000    0.00195312  23 t-inv F
 -0.125000  0.500000  0.125000    0.00195312  24 t-inv F
 -0.500000 -0.125000  0.125000    0.00195312  24 t-inv F
  0.125000 -0.500000  0.125000    0.00195312  24 t-inv F
 -0.250000  0.250000  0.125000    0.00195312  25 t-inv F
 -0.250000 -0.250000  0.125000    0.00195312  25 t-inv F
  0.250000 -0.250000  0.125000    0.00195312  25 t-inv F
 -0.250000  0.375000  0.125000    0.00195312  26 t-inv F
 -0.375000 -0.250000  0.125000    0.00195312  26 t-inv F
  0.250000 -0.375000  0.125000    0.00195312  26 t-inv F
  0.375000 -0.250000  0.125000    0.00195312  26 t-inv F
 -0.250000 -0.375000  0.125000    0.00195312  26 t-inv F
 -0.375000  0.250000  0.125000    0.00195312  26 t-inv F
  0.250000  0.375000  0.125000    0.00195312  26 t-inv F
 -0.250000  0.500000  0.125000    0.00195312  27 t-inv F
 -0.500000 -0.250000  0.125000    0.00195312  27 t-inv F
  0.250000 -0.500000  0.125000    0.00195312  27 t-inv F
 -0.375000  0.375000  0.125000    0.00195312  28 t-inv F
 -0.375000 -0.375000  0.125000    0.00195312  28 t-inv F
  0.375000 -0.375000  0.125000    0.00195312  28 t-inv F
 -0.375000  0.500000  0.125000    0.00195312  29 t-inv F
 -0.500000 -0.375000  0.125000    0.00195312  29 t-inv F
  0.375000 -0.500000  0.125000    0.00195312  29 t-inv F
  0.000000  0.125000  0.250000    0.00195312  32 t-inv F
 -0.125000  0.000000  0.250000    0.00195312  32 t-inv F
  0.000000 -0.125000  0.250000    0.00195312  32 t-inv F
  0.000000  0.250000  0.250000    0.00195312  33 t-inv F
 -0.250000  0.000000  0.250000    0.00195312  33 t-inv F
  0.000000 -0.250000  0.250000    0.00195312  33 t-inv F
  0.000000  0.375000  0.250000    0.00195312  34 t-inv F
 -0.375000  0.000000  0.250000    0.00195312  34 t-inv F
  0.000000 -0.375000  0.250000    0.00195312  34 t-inv F
  0.000000  0.500000  0.250000    0.00195312  35 t-inv F
 -0.125000  0.125000  0.250000    0.00195312  36 t-inv F
 -0.125000 -0.125000  0.250000    0.00195312  36 t-inv F
  0.125000 -0.125000  0.250000    0.00195312  36 t-inv F
 -0.125000  0.250000  0.250000    0.00195312  37 t-inv F
 -0.250000 -0.125000  0.250000    0.00195312  37 t-inv F
  0.125000 -0.250000  0.250000    0.00195312  37 t-inv F
  0.250000 -0.125000  0.250000    0.00195312  37 t-inv F
 -0.125000 -0.250000  0.250000    0.00195312  37 t-inv F
 -0.250000  0.125000  0.250000    0.00195312  37 t-inv F
  0.125000  0.250000  0.250000    0.00195312  37 t-inv F
 -0.125000  0.375000  0.250000    0.00195312  38 t-inv F
 -0.375000 -0.125000  0.250000    0.00195312  38 t-inv F
  0.125000 -0.375000  0.250000    0.00195312  38 t-inv F
  0.375000 -0.125000  0.250000    0.00195312  38 t-inv F
 -0.125000 -0.375000  0.250000    0.00195312  38 t-inv F
 -0.375000  0.125000  0.250000    0.00195312  38 t-inv F
  0.125000  0.375000  0.250000    0.00195312  38 t-inv F
 -0.125000  0.500000  0.250000    0.00195312  39 t-inv F
 -0.500000 -0.125000  0.250000    0.00195312  39 t-inv F
  0.125000 -0.500000  0.250000    0.00195312  39 t-inv F
 -0.250000  0.250000  0.250000    0.00195312  40 t-inv F
 -0.250000 -0.250000  0.250000    0.00195312  40 t-inv F
  0.250000 -0.250000  0.250000    0.00195312  40 t-inv F
 -0.250000  0.375000  0.250000    0.00195312  41 t-inv F
 -0.375000 -0.250000  0.250000    0.00195312  41 t-inv F
  0.250000 -0.375000  0.250000    0.00195312  41 t-inv F
  0.375000 -0.250000  0.250000    0.00195312  41 t-inv F
 -0.250000 -0.375000  0.250000    0.00195312  41 t-inv F
 -0.375000  0.250000  0.250000    0.00195312  41 t-inv F
  0.250000  0.375000  0.250000    0.00195312  41 t-inv F
 -0.250000  0.500000  0.250000    0.00195312  42 t-inv F
 -0.500000 -0.250000  0.250000    0.00195312  42 t-inv F
  0.250000 -0.500000  0.250000    0.00195312  42 t-inv F
 -0.375000  0.375000  0.250000    0.00195312  43 t-inv F
 -0.375000 -0.375000  0.250000    0.00195312  43 t-inv F
  0.375000 -0.375000  0.250000    0.00195312  43 t-inv F
 -0.375000  0.500000  0.250000    0.00195312  44 t-inv F
 -0.500000 -0.375000  0.250000    0.00195312  44 t-inv F
  0.375000 -0.500000  0.250000    0.00195312  44 t-inv F
  0.000000  0.125000  0.375000    0.00195312  47 t-inv F
 -0.125000  0.000000  0.375000    0.00195312  47 t-inv F
  0.000000 -0.125000  0.375000    0.00195312  47 t-inv F
  0.000000  0.250000  0.375000    0.00195312  48 t-inv F
 -0.250000  0.000000  0.375000    0.00195312  48 t-inv F
  0.000000 -0.250000  0.375000    0.00195312  48 t-inv F
  0.000000  0.375000  0.375000    0.00195312  49 t-inv F
 -0.375000  0.000000  0.375000    0.00195312  49 t-inv F
  0.000000 -0.375000  0.375000    0.00195312  49 t-inv F
  0.000000  0.500000  0.375000    0.00195312  50 t-inv F
 -0.125000  0.125000  0.375000    0.00195312  51 t-inv F
 -0.125000 -0.125000  0.375000    0.00195312  51 t-inv F
  0.125000 -0.125000  0.375000    0.00195312  51 t-inv F
 -0.125000  0.250000  0.375000    0.00195312  52 t-inv F
 -0.250000 -0.125000  0.375000    0.00195312  52 t-inv F
  0.125000 -0.250000  0.375000    0.00195312  52 t-inv F
  0.250000 -0.125000  0.375000    0.00195312  52 t-inv F
 -0.125000 -0.250000  0.375000    0.00195312  52 t-inv F
 -0.250000  0.125000  0.375000    0.00195312  52 t-inv F
  0.125000  0.250000  0.375000    0.00195312  52 t-inv F
 -0.125000  0.375000  0.375000    0.00195312  53 t-inv F
 -0.375000 -0.125000  0.375000    0.00195312  53 t-inv F
  0.125000 -0.375000  0.375000    0.00195312  53 t-inv F
  0.375000 -0.125000  0.375000    0.00195312  53 t-inv F
 -0.125000 -0.375000  0.375000    0.00195312  53 t-inv F
 -0.375000  0.125000  0.375000    0.00195312  53 t-inv F
  0.125000  0.375000  0.375000    0.00195312  53 t-inv F
 -0.125000  0.500000  0.375000    0.00195312  54 t-inv F
 -0.500000 -0.125000  0.375000    0.00195312  54 t-inv F
  0.125000 -0.500000  0.375000    0.00195312  54 t-inv F
 -0.250000  0.250000  0.375000    0.00195312  55 t-inv F
 -0.250000 -0.250000  0.375000    0.00195312  55 t-inv F
  0.250000 -0.250000  0.375000    0.00195312  55 t-inv F
 -0.250000  0.375000  0.375000    0.00195312  56 t-inv F
 -0.375000 -0.250000  0.375000    0.00195312  56 t-inv F
  0.250000 -0.375000  0.375000    0.00195312  56 t-inv F
  0.375000 -0.250000  0.375000    0.00195312  56 t-inv F
 -0.250000 -0.375000  0.375000    0.00195312  56 t-inv F
 -0.375000  0.250000  0.375000    0.00195312  56 t-inv F
  0.250000  0.375000  0.375000    0.00195312  56 t-inv F
 -0.250000  0.500000  0.375000    0.00195312  57 t-inv F
 -0.500000 -0.250000  0.375000    0.00195312  57 t-inv F
  0.250000 -0.500000  0.375000    0.00195312  57 t-inv F
 -0.375000  0.375000  0.375000    0.00195312  58 t-inv F
 -0.375000 -0.375000  0.375000    0.00195312  58 t-inv F
  0.375000 -0.375000  0.375000    0.00195312  58 t-inv F
 -0.375000  0.500000  0.375000    0.00195312  59 t-inv F
 -0.500000 -0.375000  0.375000    0.00195312  59 t-inv F
  0.375000 -0.500000  0.375000    0.00195312  59 t-inv F
  0.000000  0.125000  0.500000    0.00195312  62 t-inv F
 -0.125000  0.000000  0.500000    0.00195312  62 t-inv F
  0.000000 -0.125000  0.500000    0.00195312  62 t-inv F
  0.000000  0.250000  0.500000    0.00195312  63 t-inv F
 -0.250000  0.000000  0.500000    0.00195312  63 t-inv F
  0.000000 -0.250000  0.500000    0.00195312  63 t-inv F
  0.000000  0.375000  0.500000    0.00195312  64 t-inv F
 -0.375000  0.000000  0.500000    0.00195312  64 t-inv F
  0.000000 -0.375000  0.500000    0.00195312  64 t-inv F
  0.000000  0.500000  0.500000    0.00195312  65 t-inv F
 -0.125000  0.125000  0.500000    0.00195312  66 t-inv F
 -0.125000 -0.125000  0.500000    0.00195312  66 t-inv F
  0.125000 -0.125000  0.500000    0.00195312  66 t-inv F
 -0.125000  0.250000  0.500000    0.00195312  67 t-inv F
 -0.250000 -0.125000  0.500000    0.00195312  67 t-inv F
  0.125000 -0.250000  0.500000    0.00195312  67 t-inv F
  0.250000 -0.125000  0.500000    0.00195312  67 t-inv F
 -0.125000 -0.250000  0.500000    0.00195312  67 t-inv F
 -0.250000  0.125000  0.500000    0.00195312  67 t-inv F
  0.125000  0.250000  0.500000    0.00195312  67 t-inv F
 -0.125000  0.375000  0.500000    0.00195312  68 t-inv F
 -0.375000 -0.125000  0.500000    0.00195312  68 t-inv F
  0.125000 -0.375000  0.500000    0.00195312  68 t-inv F
  0.375000 -0.125000  0.500000    0.00195312  68 t-inv F
 -0.125000 -0.375000  0.500000    0.00195312  68 t-inv F
 -0.375000  0.125000  0.500000    0.00195312  68 t-inv F
  0.125000  0.375000  0.500000    0.00195312  68 t-inv F
 -0.125000  0.500000  0.500000    0.00195312  69 t-inv F
 -0.500000 -0.125000  0.500000    0.00195312  69 t-inv F
  0.125000 -0.500000  0.500000    0.00195312  69 t-inv F
 -0.250000  0.250000  0.500000    0.00195312  70 t-inv F
 -0.250000 -0.250000  0.500000    0.00195312  70 t-inv F
  0.250000 -0.250000  0.500000    0.00195312  70 t-inv F
 -0.250000  0.375000  0.500000    0.00195312  71 t-inv F
 -0.375000 -0.250000  0.500000    0.00195312  71 t-inv F
  0.250000 -0.375000  0.500000    0.00195312  71 t-inv F
  0.375000 -0.250000  0.500000    0.00195312  71 t-inv F
 -0.250000 -0.375000  0.500000    0.00195312  71 t-inv F
 -0.375000  0.250000  0.500000    0.00195312  71 t-inv F
  0.250000  0.375000  0.500000    0.00195312  71 t-inv F
 -0.250000  0.500000  0.500000    0.00195312  72 t-inv F
 -0.500000 -0.250000  0.500000    0.00195312  72 t-inv F
  0.250000 -0.500000  0.500000    0.00195312  72 t-inv F
 -0.375000  0.375000  0.500000    0.00195312  73 t-inv F
 -0.375000 -0.375000  0.500000    0.00195312  73 t-inv F
  0.375000 -0.375000  0.500000    0.00195312  73 t-inv F
 -0.375000  0.500000  0.500000    0.00195312  74 t-inv F
 -0.500000 -0.375000  0.500000    0.00195312  74 t-inv F
  0.375000 -0.500000  0.500000    0.00195312  74 t-inv F
  0.000000  0.000000 -0.125000    0.00195312  16 t-inv T
 -0.125000  0.000000 -0.125000    0.00195312  17 t-inv T
  0.000000 -0.125000 -0.125000    0.00195312  17 t-inv T
  0.125000  0.000000 -0.125000    0.00195312  17 t-inv T
  0.000000  0.125000 -0.125000    0.00195312  17 t-inv T
 -0.250000  0.000000 -0.125000    0.00195312  18 t-inv T
  0.000000 -0.250000 -0.125000    0.00195312  18 t-inv T
  0.250000  0.000000 -0.125000    0.00195312  18 t-inv T
  0.000000  0.250000 -0.125000    0.00195312  18 t-inv T
 -0.375000  0.000000 -0.125000    0.00195312  19 t-inv T
  0.000000 -0.375000 -0.125000    0.00195312  19 t-inv T
  0.375000  0.000000 -0.125000    0.00195312  19 t-inv T
  0.000000  0.375000 -0.125000    0.00195312  19 t-inv T
 -0.500000  0.000000 -0.125000    0.00195312  20 t-inv T
  0.000000 -0.500000 -0.125000    0.00195312  20 t-inv T
 -0.125000 -0.125000 -0.125000    0.00195312  21 t-inv T
  0.125000 -0.125000 -0.125000    0.00195312  21 t-inv T
  0.125000  0.125000 -0.125000    0.00195312  21 t-inv T
 -0.125000  0.125000 -0.125000    0.00195312  21 t-inv T
 -0.250000 -0.125000 -0.125000    0.00195312  22 t-inv T
  0.125000 -0.250000 -0.125000    0.00195312  22 t-inv T
  0.250000  0.125000 -0.125000    0.00195312  22 t-inv T
 -0.125000  0.250000 -0.125000    0.00195312  22 t-inv T
 -0.250000  0.125000 -0.125000    0.00195312  22 t-inv T
  0.125000  0.250000 -0.125000    0.00195312  22 t-inv T
  0.250000 -0.125000 -0.125000    0.00195312  22 t-inv T
 -0.125000 -0.250000 -0.125000    0.00195312  22 t-inv T
 -0.375000 -0.125000 -0.125000    0.00195312  23 t-inv T
  0.125000 -0.375000 -0.125000    0.00195312  23 t-inv T
  0.375000  0.125000 -0.125000    0.00195312  23 t-inv T
 -0.125000  0.375000 -0.125000    0.00195312  23 t-inv T
 -0.375000  0.125000 -0.125000    0.00195312  23 t-inv T
  0.125000  0.375000 -0.125000    0.00195312  23 t-inv T
  0.375000 -0.125000 -0.125000    0.00195312  23 t-inv T
 -0.125000 -0.375000 -0.125000    0.00195312  23 t-inv T
 -0.500000 -0.125000 -0.125000    0.00195312  24 t-inv T
  0.125000 -0.500000 -0.125000    0.00195312  24 t-inv T
  0.500000  0.125000 -0.125000    0.00195312  24 t-inv T
 -0.125000  0.500000 -0.125000    0.00195312  24 t-inv T
 -0.250000 -0.250000 -0.125000    0.00195312  25 t-inv T
  0.250000 -0.250000 -0.125000    0.00195312  25 t-inv T
  0.250000  0.250000 -0.125000    0.00195312  25 t-inv T
 -0.250000  0.250000 -0.125000    0.00195312  25 t-inv T
 -0.375000 -0.250000 -0.125000    0.00195312  26 t-inv T
  0.250000 -0.375000 -0.125000    0.00195312  26 t-inv T
  0.375000  0.250000 -0.125000    0.00195312  26 t-inv T
 -0.250000  0.375000 -0.125000    0.00195312  26 t-inv T
 -0.375000  0.250000 -0.125000    0.00195312  26 t-inv T
  0.250000  0.375000 -0.125000    0.00195312  26 t-inv T
  0.375000 -0.250000 -0.125000    0.00195312  26 t-inv T
 -0.250000 -0.375000 -0.125000    0.00195312  26 t-inv T
 -0.500000 -0.250000 -0.125000    0.00195312  27 t-inv T
  0.250000 -0.500000 -0.125000    0.00195312  27 t-inv T
  0.500000  0.250000 -0.125000    0.00195312  27 t-inv T
 -0.250000  0.500000 -0.125000    0.00195312  27 t-inv T
 -0.375000 -0.375000 -0.125000    0.00195312  28 t-inv T
  0.375000 -0.375000 -0.125000    0.00195312  28 t-inv T
  0.375000  0.375000 -0.125000    0.00195312  28 t-inv T
 -0.375000  0.375000 -0.125000    0.00195312  28 t-inv T
 -0.500000 -0.375000 -0.125000    0.00195312  29 t-inv T
  0.375000 -0.500000 -0.125000    0.00195312  29 t-inv T
  0.500000  0.375000 -0.125000    0.00195312  29 t-inv T
 -0.375000  0.500000 -0.125000    0.00195312  29 t-inv T
 -0.500000 -0.500000 -0.125000    0.00195312  30 t-inv T
  0.000000  0.000000 -0.250000    0.00195312  31 t-inv T
 -0.125000  0.000000 -0.250000    0.00195312  32 t-inv T
  0.000000 -0.125000 -0.250000    0.00195312  32 t-inv T
  0.125000  0.000000 -0.250000    0.00195312  32 t-inv T
  0.000000  0.125000 -0.250000    0.00195312  32 t-inv T
 -0.250000  0.000000 -0.250000    0.00195312  33 t-inv T
  0.000000 -0.250000 -0.250000    0.00195312  33 t-inv T
  0.250000  0.000000 -0.250000    0.00195312  33 t-inv T
  0.000000  0.250000 -0.250000    0.00195312  33 t-inv T
 -0.375000  0.000000 -0.250000    0.00195312  34 t-inv T
  0.000000 -0.375000 -0.250000    0.00195312  34 t-inv T
  0.375000  0.000000 -0.250000    0.00195312  34 t-inv T
  0.000000  0.375000 -0.250000    0.00195312  34 t-inv T
 -0.500000  0.000000 -0.250000    0.00195312  35 t-inv T
  0.000000 -0.500000 -0.250000    0.00195312  35 t-inv T
 -0.125000 -0.125000 -0.250000    0.00195312  36 t-inv T
  0.125000 -0.125000 -0.250000    0.00195312  36 t-inv T
  0.125000  0.125000 -0.250000    0.00195312  36 t-inv T
 -0.125000  0.125000 -0.250000    0.00195312  36 t-inv T
 -0.250000 -0.125000 -0.250000    0.00195312  37 t-inv T
  0.125000 -0.250000 -0.250000    0.00195312  37 t-inv T
  0.250000  0.125000 -0.250000    0.00195312  37 t-inv T
 -0.125000  0.250000 -0.250000    0.00195312  37 t-inv T
 -0.250000  0.125000 -0.250000    0.00195312  37 t-inv T
  0.125000  0.250000 -0.250000    0.00195312  37 t-inv T
  0.250000 -0.125000 -0.250000    0.00195312  37 t-inv T
 -0.125000 -0.250000 -0.250000    0.00195312  37 t-inv T
 -0.375000 -0.125000 -0.250000    0.00195312  38 t-inv T
  0.125000 -0.375000 -0.250000    0.00195312  38 t-inv T
  0.375000  0.125000 -0.250000    0.00195312  38 t-inv T
 -0.125000  0.375000 -0.250000    0.00195312  38 t-inv T
 -0.375000  0.125000 -0.250000    0.00195312  38 t-inv T
  0.125000  0.375000 -0.250000    0.00195312  38 t-inv T
  0.375000 -0.125000 -0.250000    0.00195312  38 t-inv T
 -0.125000 -0.375000 -0.250000    0.00195312  38 t-inv T
 -0.500000 -0.125000 -0.250000    0.00195312  39 t-inv T
  0.125000 -0.500000 -0.250000    0.00195312  39 t-inv T
  0.500000  0.125000 -0.250000    0.00195312  39 t-inv T
 -0.125000  0.500000 -0.250000    0.00195312  39 t-inv T
 -0.250000 -0.250000 -0.250000    0.00195312  40 t-inv T
  0.250000 -0.250000 -0.250000    0.00195312  40 t-inv T
  0.250000  0.250000 -0.250000    0.00195312  40 t-inv T
 -0.250000  0.250000 -0.250000    0.00195312  40 t-inv T
 -0.375000 -0.250000 -0.250000    0.00195312  41 t-inv T
  0.250000 -0.375000 -0.250000    0.00195312  41 t-inv T
  0.375000  0.250000 -0.250000    0.00195312  41 t-inv T
 -0.250000  0.375000 -0.250000    0.00195312  41 t-inv T
 -0.375000  0.250000 -0.250000    0.00195312  41 t-inv T
  0.250000  0.375000 -0.250000    0.00195312  41 t-inv T
  0.375000 -0.250000 -0.250000    0.00195312  41 t-inv T
 -0.250000 -0.375000 -0.250000    0.00195312  41 t-inv T
 -0.500000 -0.250000 -0.250000    0.00195312  42 t-inv T
  0.250000 -0.500000 -0.250000    0.00195312  42 t-inv T
  0.500000  0.250000 -0.250000    0.00195312  42 t-inv T
 -0.250000  0.500000 -0.250000    0.00195312  42 t-inv T
 -0.375000 -0.375000 -0.250000    0.00195312  43 t-inv T
  0.375000 -0.375000 -0.250000    0.00195312  43 t-inv T
  0.375000  0.375000 -0.250000    0.00195312  43 t-inv T
 -0.375000  0.375000 -0.250000    0.00195312  43 t-inv T
 -0.500000 -0.375000 -0.250000    0.00195312  44 t-inv T
  0.375000 -0.500000 -0.250000    0.00195312  44 t-inv T
  0.500000  0.375000 -0.250000    0.00195312  44 t-inv T
 -0.375000  0.500000 -0.250000    0.00195312  44 t-inv T
 -0.500000 -0.500000 -0.250000    0.00195312  45 t-inv T
  0.000000  0.000000 -0.375000    0.00195312  46 t-inv T
 -0.125000  0.000000 -0.375000    0.00195312  47 t-inv T
  0.000000 -0.125000 -0.375000    0.00195312  47 t-inv T
  0.125000  0.000000 -0.375000    0.00195312  47 t-inv T
  0.000000  0.125000 -0.375000    0.00195312  47 t-inv T
 -0.250000  0.000000 -0.375000    0.00195312  48 t-inv T
  0.000000 -0.250000 -0.375000    0.00195312  48 t-inv T
  0.250000  0.000000 -0.375000    0.00195312  48 t-inv T
  0.000000  0.250000 -0.375000    0.00195312  48 t-inv T
 -0.375000  0.000000 -0.375000    0.00195312  49 t-inv T
  0.000000 -0.375000 -0.375000    0.00195312  49 t-inv T
  0.375000  0.000000 -0.375000    0.00195312  49 t-inv T
  0.000000  0.375000 -0.375000    0.00195312  49 t-inv T
 -0.500000  0.000000 -0.375000    0.00195312  50 t-inv T
  0.000000 -0.500000 -0.375000    0.00195312  50 t-inv T
 -0.125000 -0.125000 -0.375000    0.00195312  51 t-inv T
  0.125000 -0.125000 -0.375000    0.00195312  51 t-inv T
  0.125000  0.125000 -0.375000    0.00195312  51 t-inv T
 -0.125000  0.125000 -0.375000    0.00195312  51 t-inv T
 -0.250000 -0.125000 -0.375000    0.00195312  52 t-inv T
  0.125000 -0.250000 -0.375000    0.00195312  52 t-inv T
  0.250000  0.125000 -0.375000    0.00195312  52 t-inv T
 -0.125000  0.250000 -0.375000    0.00195312  52 t-inv T
 -0.250000  0.125000 -0.375000    0.00195312  52 t-inv T
  0.125000  0.250000 -0.375000    0.00195312  52 t-inv T
  0.250000 -0.125000 -0.375000    0.00195312  52 t-inv T
 -0.125000 -0.250000 -0.375000    0.00195312  52 t-inv T
 -0.375000 -0.125000 -0.375000    0.00195312  53 t-inv T
  0.125000 -0.375000 -0.375000    0.00195312  53 t-inv T
  0.375000  0.125000 -0.375000    0.00195312  53 t-inv T
 -0.125000  0.375000 -0.375000    0.00195312  53 t-inv T
 -0.375000  0.125000 -0.375000    0.00195312  53 t-inv T
  0.125000  0.375000 -0.375000    0.00195312  53 t-inv T
  0.375000 -0.125000 -0.375000    0.00195312  53 t-inv T
 -0.125000 -0.375000 -0.375000    0.00195312  53 t-inv T
 -0.500000 -0.125000 -0.375000    0.00195312  54 t-inv T
  0.125000 -0.500000 -0.375000    0.00195312  54 t-inv T
  0.500000  0.125000 -0.375000    0.00195312  54 t-inv T
 -0.125000  0.500000 -0.375000    0.00195312  54 t-inv T
 -0.250000 -0.250000 -0.375000    0.00195312  55 t-inv T
  0.250000 -0.250000 -0.375000    0.00195312  55 t-inv T
  0.250000  0.250000 -0.375000    0.00195312  55 t-inv T
 -0.250000  0.250000 -0.375000    0.00195312  55 t-inv T
 -0.375000 -0.250000 -0.375000    0.00195312  56 t-inv T
  0.250000 -0.375000 -0.375000    0.00195312  56 t-inv T
  0.375000  0.250000 -0.375000    0.00195312  56 t-inv T
 -0.250000  0.375000 -0.375000    0.00195312  56 t-inv T
 -0.375000  0.250000 -0.375000    0.00195312  56 t-inv T
  0.250000  0.375000 -0.375000    0.00195312  56 t-inv T
  0.375000 -0.250000 -0.375000    0.00195312  56 t-inv T
 -0.250000 -0.375000 -0.375000    0.00195312  56 t-inv T
 -0.500000 -0.250000 -0.375000    0.00195312  57 t-inv T
  0.250000 -0.500000 -0.375000    0.00195312  57 t-inv T
  0.500000  0.250000 -0.375000    0.00195312  57 t-inv T
 -0.250000  0.500000 -0.375000    0.00195312  57 t-inv T
 -0.375000 -0.375000 -0.375000    0.00195312  58 t-inv T
  0.375000 -0.375000 -0.375000    0.00195312  58 t-inv T
  0.375000  0.375000 -0.375000    0.00195312  58 t-inv T
 -0.375000  0.375000 -0.375000    0.00195312  58 t-inv T
 -0.500000 -0.375000 -0.375000    0.00195312  59 t-inv T
  0.375000 -0.500000 -0.375000    0.00195312  59 t-inv T
  0.500000  0.375000 -0.375000    0.00195312  59 t-inv T
 -0.375000  0.500000 -0.375000    0.00195312  59 t-inv T
 -0.500000 -0.500000 -0.375000    0.00195312  60 t-inv T


--------------------------------------------------------------------------------------------------------




 Dimension of arrays:
   k-points           NKPTS =    262   k-points in BZ     NKDIM =    699   number of bands    NBANDS=     30
   number of dos      NEDOS =    301   number of ions     NIONS =      5
   non local maximal  LDIM  =      6   non local SUM 2l+1 LMDIM =     18
   total plane-waves  NPLWV =  27000
   max r-space proj   IRMAX =      1   max aug-charges    IRDMAX= 176339
   dimension x,y,z NGX =    30 NGY =   30 NGZ =   30
   dimension x,y,z NGXF=    60 NGYF=   60 NGZF=   60
   support grid    NGXF=   120 NGYF=  120 NGZF=  120
   ions per type =               3   1   1
 NGX,Y,Z   is equivalent  to a cutoff of  12.51, 12.51, 12.19 a.u.
 NGXF,Y,Z  is equivalent  to a cutoff of  25.01, 25.01, 24.37 a.u.


 I would recommend the setting:
   dimension x,y,z NGX =    30 NGY =   30 NGZ =   30
 SYSTEM =  band                                    
 POSCAR =  Primitive Cell                          

 Startparameter for this run:
   NWRITE =      2    write-flag & timer
   PREC   = accura    normal or accurate (medium, high low for compatibility)
   ISTART =      1    job   : 0-new  1-cont  2-samecut
   ICHARG =      1    charge: 1-file 2-atom 10-const
   ISPIN  =      1    spin polarized calculation?
   LNONCOLLINEAR =      F non collinear calculations
   LSORBIT =      F    spin-orbit coupling
   INIWAV =      1    electr: 0-lowe 1-rand  2-diag
   LASPH  =      F    aspherical Exc in radial PAW
   METAGGA=      F    non-selfconsistent MetaGGA calc.

 Electronic Relaxation 1
   ENCUT  =  520.0 eV  38.22 Ry    6.18 a.u.   7.42  7.42  7.61*2*pi/ulx,y,z
   ENINI  =  520.0     initial cutoff
   ENAUG  =  605.4 eV  augmentation charge cutoff
   NELM   =    140;   NELMIN=  6; NELMDL=  0     # of ELM steps 
   EDIFF  = 0.1E-03   stopping-criterion for ELM
   LREAL  =      F    real-space projection
   NLSPLINE    = F    spline interpolate recip. space projectors
   LCOMPAT=      F    compatible to vasp.4.4
   GGA_COMPAT  = T    GGA compatible to vasp.4.4-vasp.4.6
   LMAXPAW     = -100 max onsite density
   LMAXMIX     =    2 max onsite mixed and CHGCAR
   VOSKOWN=      0    Vosko Wilk Nusair interpolation
   ROPT   =    0.00000   0.00000   0.00000
 Ionic relaxation
   EDIFFG = -.1E-01   stopping-criterion for IOM
   NSW    =      0    number of steps for IOM
   NBLOCK =      1;   KBLOCK =      1    inner block; outer block 
   IBRION =     -1    ionic relax: 0-MD 1-quasi-New 2-CG
   NFREE  =      0    steps in history (QN), initial steepest desc. (CG)
   ISIF   =      2    stress and relaxation
   IWAVPR =     10    prediction:  0-non 1-charg 2-wave 3-comb
   ISYM   =      3    0-nonsym 1-usesym 2-fastsym
   LCORR  =      T    Harris-Foulkes like correction to forces

   POTIM  = 0.0500    time-step for ionic-motion
   TEIN   =    0.0    initial temperature
   TEBEG  =    0.0;   TEEND  =   0.0 temperature during run
   SMASS  =  -3.00    Nose mass-parameter (am)
   estimated Nose-frequenzy (Omega)   =  0.10E-29 period in steps =****** mass=  -0.363E-27a.u.
   SCALEE = 1.0000    scale energy and forces
   NPACO  =    256;   APACO  = 16.0  distance and # of slots for P.C.
   PSTRESS=    0.0 pullay stress

  Mass of Ions in am
   POMASS =  16.00207.20 47.88
  Ionic Valenz
   ZVAL   =   6.00 14.00 12.00
  Atomic Wigner-Seitz radii
   RWIGS  =  -1.00 -1.00 -1.00
  virtual crystal weights 
   VCA    =   1.00  1.00  1.00
   NELECT =      44.0000    total number of electrons
   NUPDOWN=      -1.0000    fix difference up-down

 DOS related values:
   EMIN   =  10.00;   EMAX   =-10.00  energy-range for DOS
   EFERMI =   0.00
   ISMEAR =     0;   SIGMA  =   0.05  broadening in eV -4-tet -1-fermi 0-gaus

 Electronic relaxation 2 (details)
   IALGO  =     53    algorithm
   LDIAG  =      T    sub-space diagonalisation (order eigenvalues)
   LSUBROT=      F    optimize rotation matrix (better conditioning)
   TURBO    =      0    0=normal 1=particle mesh
   IRESTART =      0    0=no restart 2=restart with 2 vectors
   NREBOOT  =      0    no. of reboots
   NMIN     =      0    reboot dimension
   EREF     =   0.00    reference energy to select bands
   IMIX   =      4    mixing-type and parameters
     AMIX     =   0.10;   BMIX     =  1.20
     AMIX_MAG =   0.40;   BMIX_MAG =  1.20
     AMIN     =   0.10
     WC   =   100.;   INIMIX=   1;  MIXPRE=   1;  MAXMIX= -45

 Intra band minimization:
   WEIMIN = 0.0000     energy-eigenvalue tresh-hold
   EBREAK =  0.83E-06  absolut break condition
   DEPER  =   0.30     relativ break condition  

   TIME   =   0.40     timestep for ELM

  volume/ion in A,a.u.               =      13.02        87.86
  Fermi-wavevector in a.u.,A,eV,Ry     =   1.436701  2.714970 28.083899  2.064108
  Thomas-Fermi vector in A             =   2.555860
 
 Write flags
   LWAVE  =      F    write WAVECAR
   LCHARG =      F    write CHGCAR
   LVTOT  =      F    write LOCPOT, total local potential
   LVHAR  =      F    write LOCPOT, Hartree potential only
   LELF   =      F    write electronic localiz. function (ELF)
   LORBIT =     11    0 simple, 1 ext, 2 COOP (PROOUT)


 Dipole corrections
   LMONO  =      F    monopole corrections only (constant potential shift)
   LDIPOL =      F    correct potential (dipole corrections)
   IDIPOL =      0    1-x, 2-y, 3-z, 4-all directions 
   EPSILON=  1.0000000 bulk dielectric constant

 Exchange correlation treatment:
   GGA     =    --    GGA type
   LEXCH   =     8    internal setting for exchange type
   VOSKOWN=      0    Vosko Wilk Nusair interpolation
   EXXOEP  =     0    0=HF, 1=EXX-LHF (local Hartree Fock) 2=EXX OEP
   LHFCALC =     T    Hartree Fock is set to
   LSYMGRAD=     F    symmetrize gradient (conserves proper symmetry)
   PRECFOCK=normal    Normal, Fast or Accurate (Low or Medium for compatibility)
   LRHFCALC=     F    long range Hartree Fock
   LRSCOR  =     F    long range correlation only (use DFT for short range part)
   LTHOMAS =     F    Thomas Fermi screening in HF
   LMODELHF=     F    short range full HF, long range fraction AEXX
   ENCUT4O =  -1.0   cutoff for four orbital integrals eV
   LMAXFOCK=     4    L truncation for augmentation on plane wave grid
   LMAXFOCKAE=  -1    L truncation for all-electron charge restoration on plane wave grid
   NMAXFOCKAE=   1    number of basis functions for all-electron charge restoration
   LFOCKAEDFT=     F  apply the AE augmentation even for DFT
   NKREDX  =     1    reduce k-point grid by
   NKREDY  =     1    reduce k-point grid by
   NKREDZ  =     1    reduce k-point grid by
   SHIFTRED=     F    shift reduced grid of Gamma
   HFKIDENT=     F    idential grid for each k-point
   ODDONLY =     F    use only odd q-grid points
   EVENONLY=     F    use only even q-grid points
   HFALPHA =   -1.0000 decay constant for conv. correction
   MCALPHA =    0.0000 extent of test-charge in conv. correction in multipole expansion
   AEXX    =    0.2500 exact exchange contribution
   HFSCREEN=    0.2000 screening length (either q_TF or 0.3 A-1)
   HFSCREENC=   0.2000 screening length for correlation (either q_TF or 0.3 A-1)
   HFRCUT  =    0.0000 spherical cutoff for potential kernel
   ALDAX   =    0.7500 LDA exchange part
   AGGAX   =    0.7500 GGA exchange part
   ALDAC   =    1.0000 LDA correlation
   AGGAC   =    1.0000 GGA correlation
   NBANDSGWLOW=     1    first orbital included in HF term
   ENCUTFOCK=  -1.0 apply spherical cutoff to Coloumb kernel
 Linear response parameters
   LEPSILON=     F    determine dielectric tensor
   LRPA    =     F    only Hartree local field effects (RPA)
   LNABLA  =     F    use nabla operator in PAW spheres
   LVEL    =     F    velocity operator in full k-point grid
   LINTERFAST=   F  fast interpolation
   KINTER  =     0    interpolate to denser k-point grid
   CSHIFT  =0.1000    complex shift for real part using Kramers Kronig
   OMEGAMAX=  -1.0    maximum frequency
   DEG_THRESHOLD= 0.2000000E-02 threshold for treating states as degnerate
   RTIME   =    0.100 relaxation time in fs

 Orbital magnetization related:
   ORBITALMAG=     F  switch on orbital magnetization
   LCHIMAG   =     F  perturbation theory with respect to B field
   DQ        =  0.001000  dq finite difference perturbation B field



--------------------------------------------------------------------------------------------------------


 Static calculation
 charge density and potential will be updated during run
 non-spin polarized calculation
 Conjugate gradient for all bands (Freysoldt, et al. PRB 79, 241103 (2009))
 perform sub-space diagonalisation
    before iterative eigenvector-optimisation
 modified Broyden-mixing scheme, WC =      100.0
 initial mixing is a Kerker type mixing with AMIX =  0.1000 and BMIX =      1.2000
 Hartree-type preconditioning will be used
 using additional bands            8
 reciprocal scheme for non local part
 use partial core corrections
 no Harris-corrections to forces 
 use gradient corrections 
 use of overlap-Matrix (Vanderbilt PP)
 Gauss-broadening in eV      SIGMA  =   0.05


--------------------------------------------------------------------------------------------------------


  energy-cutoff  :      520.00
  volume of cell :       65.10
      direct lattice vectors                 reciprocal lattice vectors
     3.988245693  0.000000000  0.000000000     0.250736809  0.000000000  0.000000000
     0.000000000  3.988245693  0.000000000     0.000000000  0.250736809  0.000000000
     0.000000000  0.000000000  4.092744452     0.000000000  0.000000000  0.244334825

  length of vectors
     3.988245693  3.988245693  4.092744452     0.250736809  0.250736809  0.244334825


 
 old parameters found on file WAVECAR:
  energy-cutoff  :      520.00
  volume of cell :       65.10
      direct lattice vectors                 reciprocal lattice vectors
     3.988245693  0.000000000  0.000000000     0.250736809  0.000000000  0.000000000
     0.000000000  3.988245693  0.000000000     0.000000000  0.250736809  0.000000000
     0.000000000  0.000000000  4.092744452     0.000000000  0.000000000  0.244334825

  length of vectors

 
 k-points in units of 2pi/SCALE and weight: 0.030   8   8   8   75  0.040  187    9 
   0.00000000  0.00000000  0.00000000       0.002
   0.03134210  0.00000000  0.00000000       0.008
   0.06268420  0.00000000  0.00000000       0.008
   0.09402630  0.00000000  0.00000000       0.008
   0.12536840  0.00000000  0.00000000       0.004
   0.03134210  0.03134210  0.00000000       0.008
   0.06268420  0.03134210  0.00000000       0.016
   0.09402630  0.03134210  0.00000000       0.016
   0.12536840  0.03134210  0.00000000       0.008
   0.06268420  0.06268420  0.00000000       0.008
   0.09402630  0.06268420  0.00000000       0.016
   0.12536840  0.06268420  0.00000000       0.008
   0.09402630  0.09402630  0.00000000       0.008
   0.12536840  0.09402630  0.00000000       0.008
   0.12536840  0.12536840  0.00000000       0.002
   0.00000000  0.00000000  0.03054185       0.004
   0.03134210  0.00000000  0.03054185       0.016
   0.06268420  0.00000000  0.03054185       0.016
   0.09402630  0.00000000  0.03054185       0.016
   0.12536840  0.00000000  0.03054185       0.008
   0.03134210  0.03134210  0.03054185       0.016
   0.06268420  0.03134210  0.03054185       0.031
   0.09402630  0.03134210  0.03054185       0.031
   0.12536840  0.03134210  0.03054185       0.016
   0.06268420  0.06268420  0.03054185       0.016
   0.09402630  0.06268420  0.03054185       0.031
   0.12536840  0.06268420  0.03054185       0.016
   0.09402630  0.09402630  0.03054185       0.016
   0.12536840  0.09402630  0.03054185       0.016
   0.12536840  0.12536840  0.03054185       0.004
   0.00000000  0.00000000  0.06108371       0.004
   0.03134210  0.00000000  0.06108371       0.016
   0.06268420  0.00000000  0.06108371       0.016
   0.09402630  0.00000000  0.06108371       0.016
   0.12536840  0.00000000  0.06108371       0.008
   0.03134210  0.03134210  0.06108371       0.016
   0.06268420  0.03134210  0.06108371       0.031
   0.09402630  0.03134210  0.06108371       0.031
   0.12536840  0.03134210  0.06108371       0.016
   0.06268420  0.06268420  0.06108371       0.016
   0.09402630  0.06268420  0.06108371       0.031
   0.12536840  0.06268420  0.06108371       0.016
   0.09402630  0.09402630  0.06108371       0.016
   0.12536840  0.09402630  0.06108371       0.016
   0.12536840  0.12536840  0.06108371       0.004
   0.00000000  0.00000000  0.09162556       0.004
   0.03134210  0.00000000  0.09162556       0.016
   0.06268420  0.00000000  0.09162556       0.016
   0.09402630  0.00000000  0.09162556       0.016
   0.12536840  0.00000000  0.09162556       0.008
   0.03134210  0.03134210  0.09162556       0.016
   0.06268420  0.03134210  0.09162556       0.031
   0.09402630  0.03134210  0.09162556       0.031
   0.12536840  0.03134210  0.09162556       0.016
   0.06268420  0.06268420  0.09162556       0.016
   0.09402630  0.06268420  0.09162556       0.031
   0.12536840  0.06268420  0.09162556       0.016
   0.09402630  0.09402630  0.09162556       0.016
   0.12536840  0.09402630  0.09162556       0.016
   0.12536840  0.12536840  0.09162556       0.004
   0.00000000  0.00000000  0.12216741       0.002
   0.03134210  0.00000000  0.12216741       0.008
   0.06268420  0.00000000  0.12216741       0.008
   0.09402630  0.00000000  0.12216741       0.008
   0.12536840  0.00000000  0.12216741       0.004
   0.03134210  0.03134210  0.12216741       0.008
   0.06268420  0.03134210  0.12216741       0.016
   0.09402630  0.03134210  0.12216741       0.016
   0.12536840  0.03134210  0.12216741       0.008
   0.06268420  0.06268420  0.12216741       0.008
   0.09402630  0.06268420  0.12216741       0.016
   0.12536840  0.06268420  0.12216741       0.008
   0.09402630  0.09402630  0.12216741       0.008
   0.12536840  0.09402630  0.12216741       0.008
   0.12536840  0.12536840  0.12216741       0.002
   0.00000000  0.00000000  0.00000000       0.000
   0.00000000  0.00696491  0.00000000       0.000
   0.00000000  0.01392982  0.00000000       0.000
   0.00000000  0.02089473  0.00000000       0.000
   0.00000000  0.02785965  0.00000000       0.000
   0.00000000  0.03482456  0.00000000       0.000
   0.00000000  0.04178947  0.00000000       0.000
   0.00000000  0.04875438  0.00000000       0.000
   0.00000000  0.05571929  0.00000000       0.000
   0.00000000  0.06268420  0.00000000       0.000
   0.00000000  0.06964911  0.00000000       0.000
   0.00000000  0.07661403  0.00000000       0.000
   0.00000000  0.08357894  0.00000000       0.000
   0.00000000  0.09054385  0.00000000       0.000
   0.00000000  0.09750876  0.00000000       0.000
   0.00000000  0.10447367  0.00000000       0.000
   0.00000000  0.11143858  0.00000000       0.000
   0.00000000  0.11840349  0.00000000       0.000
   0.00000000  0.12536840  0.00000000       0.000
   0.00000000  0.12536840  0.00000000       0.000
   0.00696491  0.12536840  0.00000000       0.000
   0.01392982  0.12536840  0.00000000       0.000
   0.02089473  0.12536840  0.00000000       0.000
   0.02785965  0.12536840  0.00000000       0.000
   0.03482456  0.12536840  0.00000000       0.000
   0.04178947  0.12536840  0.00000000       0.000
   0.04875438  0.12536840  0.00000000       0.000
   0.05571929  0.12536840  0.00000000       0.000
   0.06268420  0.12536840  0.00000000       0.000
   0.06964911  0.12536840  0.00000000       0.000
   0.07661403  0.12536840  0.00000000       0.000
   0.08357894  0.12536840  0.00000000       0.000
   0.09054385  0.12536840  0.00000000       0.000
   0.09750876  0.12536840  0.00000000       0.000
   0.10447367  0.12536840  0.00000000       0.000
   0.11143858  0.12536840  0.00000000       0.000
   0.11840349  0.12536840  0.00000000       0.000
   0.12536840  0.12536840  0.00000000       0.000
   0.12536840  0.12536840  0.00000000       0.000
   0.12054654  0.12054654  0.00000000       0.000
   0.11572468  0.11572468  0.00000000       0.000
   0.11090282  0.11090282  0.00000000       0.000
   0.10608096  0.10608096  0.00000000       0.000
   0.10125910  0.10125910  0.00000000       0.000
   0.09643723  0.09643723  0.00000000       0.000
   0.09161537  0.09161537  0.00000000       0.000
   0.08679351  0.08679351  0.00000000       0.000
   0.08197165  0.08197165  0.00000000       0.000
   0.07714979  0.07714979  0.00000000       0.000
   0.07232793  0.07232793  0.00000000       0.000
   0.06750606  0.06750606  0.00000000       0.000
   0.06268420  0.06268420  0.00000000       0.000
   0.05786234  0.05786234  0.00000000       0.000
   0.05304048  0.05304048  0.00000000       0.000
   0.04821862  0.04821862  0.00000000       0.000
   0.04339676  0.04339676  0.00000000       0.000
   0.03857489  0.03857489  0.00000000       0.000
   0.03375303  0.03375303  0.00000000       0.000
   0.02893117  0.02893117  0.00000000       0.000
   0.02410931  0.02410931  0.00000000       0.000
   0.01928745  0.01928745  0.00000000       0.000
   0.01446559  0.01446559  0.00000000       0.000
   0.00964372  0.00964372  0.00000000       0.000
   0.00482186  0.00482186  0.00000000       0.000
   0.00000000  0.00000000  0.00000000       0.000
   0.00000000  0.00000000  0.00000000       0.000
   0.00000000  0.00000000  0.00678708       0.000
   0.00000000  0.00000000  0.01357416       0.000
   0.00000000  0.00000000  0.02036124       0.000
   0.00000000  0.00000000  0.02714831       0.000
   0.00000000  0.00000000  0.03393539       0.000
   0.00000000  0.00000000  0.04072247       0.000
   0.00000000  0.00000000  0.04750955       0.000
   0.00000000  0.00000000  0.05429663       0.000
   0.00000000  0.00000000  0.06108371       0.000
   0.00000000  0.00000000  0.06787078       0.000
   0.00000000  0.00000000  0.07465786       0.000
   0.00000000  0.00000000  0.08144494       0.000
   0.00000000  0.00000000  0.08823202       0.000
   0.00000000  0.00000000  0.09501910       0.000
   0.00000000  0.00000000  0.10180618       0.000
   0.00000000  0.00000000  0.10859326       0.000
   0.00000000  0.00000000  0.11538033       0.000
   0.00000000  0.00000000  0.12216741       0.000
   0.00000000  0.00000000  0.12216741       0.000
   0.00000000  0.00696491  0.12216741       0.000
   0.00000000  0.01392982  0.12216741       0.000
   0.00000000  0.02089473  0.12216741       0.000
   0.00000000  0.02785965  0.12216741       0.000
   0.00000000  0.03482456  0.12216741       0.000
   0.00000000  0.04178947  0.12216741       0.000
   0.00000000  0.04875438  0.12216741       0.000
   0.00000000  0.05571929  0.12216741       0.000
   0.00000000  0.06268420  0.12216741       0.000
   0.00000000  0.06964911  0.12216741       0.000
   0.00000000  0.07661403  0.12216741       0.000
   0.00000000  0.08357894  0.12216741       0.000
   0.00000000  0.09054385  0.12216741       0.000
   0.00000000  0.09750876  0.12216741       0.000
   0.00000000  0.10447367  0.12216741       0.000
   0.00000000  0.11143858  0.12216741       0.000
   0.00000000  0.11840349  0.12216741       0.000
   0.00000000  0.12536840  0.12216741       0.000
   0.00000000  0.12536840  0.12216741       0.000
   0.00696491  0.12536840  0.12216741       0.000
   0.01392982  0.12536840  0.12216741       0.000
   0.02089473  0.12536840  0.12216741       0.000
   0.02785965  0.12536840  0.12216741       0.000
   0.03482456  0.12536840  0.12216741       0.000
   0.04178947  0.12536840  0.12216741       0.000
   0.04875438  0.12536840  0.12216741       0.000
   0.05571929  0.12536840  0.12216741       0.000
   0.06268420  0.12536840  0.12216741       0.000
   0.06964911  0.12536840  0.12216741       0.000
   0.07661403  0.12536840  0.12216741       0.000
   0.08357894  0.12536840  0.12216741       0.000
   0.09054385  0.12536840  0.12216741       0.000
   0.09750876  0.12536840  0.12216741       0.000
   0.10447367  0.12536840  0.12216741       0.000
   0.11143858  0.12536840  0.12216741       0.000
   0.11840349  0.12536840  0.12216741       0.000
   0.12536840  0.12536840  0.12216741       0.000
   0.12536840  0.12536840  0.12216741       0.000
   0.12054654  0.12054654  0.12216741       0.000
   0.11572468  0.11572468  0.12216741       0.000
   0.11090282  0.11090282  0.12216741       0.000
   0.10608096  0.10608096  0.12216741       0.000
   0.10125910  0.10125910  0.12216741       0.000
   0.09643723  0.09643723  0.12216741       0.000
   0.09161537  0.09161537  0.12216741       0.000
   0.08679351  0.08679351  0.12216741       0.000
   0.08197165  0.08197165  0.12216741       0.000
   0.07714979  0.07714979  0.12216741       0.000
   0.07232793  0.07232793  0.12216741       0.000
   0.06750606  0.06750606  0.12216741       0.000
   0.06268420  0.06268420  0.12216741       0.000
   0.05786234  0.05786234  0.12216741       0.000
   0.05304048  0.05304048  0.12216741       0.000
   0.04821862  0.04821862  0.12216741       0.000
   0.04339676  0.04339676  0.12216741       0.000
   0.03857489  0.03857489  0.12216741       0.000
   0.03375303  0.03375303  0.12216741       0.000
   0.02893117  0.02893117  0.12216741       0.000
   0.02410931  0.02410931  0.12216741       0.000
[...]
      6     -13.5603      2.00000
      7     -13.5603      2.00000
      8     -11.8445      2.00000
      9     -11.7958      2.00000
     10     -11.6592      2.00000
     11     -11.6592      2.00000
     12     -11.6212      2.00000
     13      -2.8174      2.00000
     14      -0.4479      2.00000
     15       0.1619      2.00000
     16       0.2733      2.00000
     17       0.2733      2.00000
     18       1.4367      2.00000
     19       2.2680      2.00000
     20       3.4903      2.00000
     21       3.4903      2.00000
     22       4.2770      2.00000
     23       9.3765      0.00000
     24       9.3765      0.00000
     25       9.7917      0.00000
     26      11.4739      0.00000
     27      11.9613      0.00000
     28      11.9613      0.00000
     29      12.3896      0.00000
     30      13.4664      0.00000

 k-point   253 :       0.5000    0.5000    0.2500
  band No.  band energies     occupation 
      1     -56.7287      2.00000
      2     -31.3135      2.00000
      3     -31.3135      2.00000
      4     -31.3020      2.00000
      5     -13.6352      2.00000
      6     -13.5702      2.00000
      7     -13.5702      2.00000
      8     -11.8384      2.00000
      9     -11.7954      2.00000
     10     -11.6409      2.00000
     11     -11.6409      2.00000
     12     -11.6174      2.00000
     13      -2.7240      2.00000
     14      -0.4602      2.00000
     15       0.1215      2.00000
     16       0.1215      2.00000
     17       0.1630      2.00000
     18       1.2461      2.00000
     19       2.0358      2.00000
     20       3.6460      2.00000
     21       3.6460      2.00000
     22       4.2745      2.00000
     23       9.3976      0.00000
     24       9.3976      0.00000
     25       9.8049      0.00000
     26      11.7314      0.00000
     27      12.0897      0.00000
     28      12.0897      0.00000
     29      12.4923      0.00000
     30      13.4651      0.00000

 k-point   254 :       0.5000    0.5000    0.2778
  band No.  band energies     occupation 
      1     -56.7286      2.00000
      2     -31.3133      2.00000
      3     -31.3133      2.00000
      4     -31.3051      2.00000
      5     -13.5967      2.00000
      6     -13.5800      2.00000
      7     -13.5800      2.00000
      8     -11.8323      2.00000
      9     -11.7951      2.00000
     10     -11.6227      2.00000
     11     -11.6227      2.00000
     12     -11.6134      2.00000
     13      -2.6229      2.00000
     14      -0.4750      2.00000
     15      -0.0170      2.00000
     16      -0.0170      2.00000
     17       0.1641      2.00000
     18       1.0651      2.00000
     19       1.8010      2.00000
     20       3.7856      2.00000
     21       3.7856      2.00000
     22       4.2720      2.00000
     23       9.4270      0.00000
     24       9.4270      0.00000
     25       9.8162      0.00000
     26      11.9833      0.00000
     27      12.2204      0.00000
     28      12.2204      0.00000
     29      12.5890      0.00000
     30      13.4639      0.00000

 k-point   255 :       0.5000    0.5000    0.3056
  band No.  band energies     occupation 
      1     -56.7286      2.00000
      2     -31.3131      2.00000
      3     -31.3131      2.00000
      4     -31.3081      2.00000
      5     -13.5893      2.00000
      6     -13.5893      2.00000
      7     -13.5591      2.00000
      8     -11.8265      2.00000
      9     -11.7947      2.00000
     10     -11.6094      2.00000
     11     -11.6052      2.00000
     12     -11.6052      2.00000
     13      -2.5161      2.00000
     14      -0.4924      2.00000
     15      -0.1413      2.00000
     16      -0.1413      2.00000
     17       0.1651      2.00000
     18       0.8986      2.00000
     19       1.5690      2.00000
     20       3.9082      2.00000
     21       3.9082      2.00000
     22       4.2696      2.00000
     23       9.4634      0.00000
     24       9.4634      0.00000
     25       9.8258      0.00000
     26      12.2232      0.00000
     27      12.3507      0.00000
     28      12.3507      0.00000
     29      12.6774      0.00000
     30      13.4627      0.00000

 k-point   256 :       0.5000    0.5000    0.3333
  band No.  band energies     occupation 
      1     -56.7285      2.00000
      2     -31.3129      2.00000
      3     -31.3129      2.00000
      4     -31.3110      2.00000
      5     -13.5979      2.00000
      6     -13.5979      2.00000
      7     -13.5236      2.00000
      8     -11.8210      2.00000
      9     -11.7944      2.00000
     10     -11.6054      2.00000
     11     -11.5889      2.00000
     12     -11.5889      2.00000
     13      -2.4060      2.00000
     14      -0.5123      2.00000
     15      -0.2505      2.00000
     16      -0.2505      2.00000
     17       0.1661      2.00000
     18       0.7509      2.00000
     19       1.3451      2.00000
     20       4.0136      2.00000
     21       4.0136      2.00000
     22       4.2674      2.00000
     23       9.5044      0.00000
     24       9.5044      0.00000
     25       9.8336      0.00000
     26      12.4451      0.00000
     27      12.4775      0.00000
     28      12.4775      0.00000
     29      12.7557      0.00000
     30      13.4616      0.00000

 k-point   257 :       0.5000    0.5000    0.3611
  band No.  band energies     occupation 
      1     -56.7285      2.00000
      2     -31.3136      2.00000
      3     -31.3127      2.00000
      4     -31.3127      2.00000
      5     -13.6056      2.00000
      6     -13.6056      2.00000
      7     -13.4913      2.00000
      8     -11.8160      2.00000
      9     -11.7941      2.00000
     10     -11.6017      2.00000
     11     -11.5741      2.00000
     12     -11.5741      2.00000
     13      -2.2960      2.00000
     14      -0.5340      2.00000
     15      -0.3442      2.00000
     16      -0.3442      2.00000
     17       0.1670      2.00000
     18       0.6247      2.00000
     19       1.1351      2.00000
     20       4.1015      2.00000
     21       4.1015      2.00000
     22       4.2653      2.00000
     23       9.5474      0.00000
     24       9.5474      0.00000
     25       9.8400      0.00000
     26      12.5976      0.00000
     27      12.5976      0.00000
     28      12.6436      0.00000
     29      12.8227      0.00000
     30      13.4605      0.00000

 k-point   258 :       0.5000    0.5000    0.3889
  band No.  band energies     occupation 
      1     -56.7285      2.00000
      2     -31.3158      2.00000
      3     -31.3126      2.00000
      4     -31.3126      2.00000
      5     -13.6123      2.00000
      6     -13.6123      2.00000
      7     -13.4634      2.00000
      8     -11.8117      2.00000
      9     -11.7939      2.00000
     10     -11.5984      2.00000
     11     -11.5615      2.00000
     12     -11.5615      2.00000
     13      -2.1908      2.00000
     14      -0.5565      2.00000
     15      -0.4216      2.00000
     16      -0.4216      2.00000
     17       0.1678      2.00000
     18       0.5219      2.00000
     19       0.9455      2.00000
     20       4.1723      2.00000
     21       4.1723      2.00000
     22       4.2636      2.00000
     23       9.5889      0.00000
     24       9.5889      0.00000
     25       9.8450      0.00000
     26      12.7066      0.00000
     27      12.7066      0.00000
     28      12.8137      0.00000
     29      12.8778      0.00000
     30      13.4596      0.00000

 k-point   259 :       0.5000    0.5000    0.4167
  band No.  band energies     occupation 
      1     -56.7285      2.00000
      2     -31.3176      2.00000
      3     -31.3125      2.00000
      4     -31.3125      2.00000
      5     -13.6175      2.00000
      6     -13.6175      2.00000
      7     -13.4405      2.00000
      8     -11.8082      2.00000
      9     -11.7937      2.00000
     10     -11.5955      2.00000
     11     -11.5513      2.00000
     12     -11.5513      2.00000
     13      -2.0964      2.00000
     14      -0.5777      2.00000
     15      -0.4822      2.00000
     16      -0.4822      2.00000
     17       0.1684      2.00000
     18       0.4431      2.00000
     19       0.7841      2.00000
     20       4.2266      2.00000
     21       4.2266      2.00000
     22       4.2622      2.00000
     23       9.6255      0.00000
     24       9.6255      0.00000
     25       9.8488      0.00000
     26      12.7999      0.00000
     27      12.7999      0.00000
     28      12.9208      0.00000
     29      12.9510      0.00000
     30      13.4589      0.00000

 k-point   260 :       0.5000    0.5000    0.4444
  band No.  band energies     occupation 
      1     -56.7284      2.00000
      2     -31.3189      2.00000
      3     -31.3124      2.00000
      4     -31.3124      2.00000
      5     -13.6214      2.00000
      6     -13.6214      2.00000
      7     -13.4236      2.00000
      8     -11.8056      2.00000
      9     -11.7935      2.00000
     10     -11.5934      2.00000
     11     -11.5437      2.00000
     12     -11.5437      2.00000
     13      -2.0203      2.00000
     14      -0.5952      2.00000
     15      -0.5258      2.00000
     16      -0.5258      2.00000
     17       0.1689      2.00000
     18       0.3879      2.00000
     19       0.6592      2.00000
     20       4.2611      2.00000
     21       4.2649      2.00000
     22       4.2649      2.00000
     23       9.6543      0.00000
     24       9.6543      0.00000
     25       9.8514      0.00000
     26      12.8720      0.00000
     27      12.8720      0.00000
     28      12.9514      0.00000
     29      13.0520      0.00000
     30      13.4584      0.00000

 k-point   261 :       0.5000    0.5000    0.4722
  band No.  band energies     occupation 
      1     -56.7284      2.00000
      2     -31.3197      2.00000
      3     -31.3123      2.00000
      4     -31.3123      2.00000
      5     -13.6237      2.00000
      6     -13.6237      2.00000
      7     -13.4132      2.00000
      8     -11.8040      2.00000
      9     -11.7934      2.00000
     10     -11.5921      2.00000
     11     -11.5391      2.00000
     12     -11.5391      2.00000
     13      -1.9704      2.00000
     14      -0.6069      2.00000
     15      -0.5521      2.00000
     16      -0.5521      2.00000
     17       0.1692      2.00000
     18       0.3553      2.00000
     19       0.5797      2.00000
     20       4.2605      2.00000
     21       4.2876      2.00000
     22       4.2876      2.00000
     23       9.6726      0.00000
     24       9.6726      0.00000
     25       9.8529      0.00000
     26      12.9179      0.00000
     27      12.9179      0.00000
     28      12.9698      0.00000
     29      13.1137      0.00000
     30      13.4581      0.00000

 k-point   262 :       0.5000    0.5000    0.5000
  band No.  band energies     occupation 
      1     -56.7284      2.00000
      2     -31.3200      2.00000
      3     -31.3123      2.00000
      4     -31.3123      2.00000
      5     -13.6245      2.00000
      6     -13.6245      2.00000
      7     -13.4097      2.00000
      8     -11.8035      2.00000
      9     -11.7934      2.00000
     10     -11.5916      2.00000
     11     -11.5376      2.00000
     12     -11.5376      2.00000
     13      -1.9528      2.00000
     14      -0.6110      2.00000
     15      -0.5609      2.00000
     16      -0.5609      2.00000
     17       0.1692      2.00000
     18       0.3446      2.00000
     19       0.5523      2.00000
     20       4.2602      2.00000
     21       4.2952      2.00000
     22       4.2952      2.00000
     23       9.6789      0.00000
     24       9.6789      0.00000
     25       9.8534      0.00000
     26      12.9336      0.00000
     27      12.9336      0.00000
     28      12.9760      0.00000
     29      13.1345      0.00000
     30      13.4580      0.00000


--------------------------------------------------------------------------------------------------------


 soft charge-density along one line, spin component           1
         0         1         2         3         4         5         6         7         8         9
 total charge-density along one line
 
 pseudopotential strength for first ion, spin component:           1
 10.857 -13.111   0.000  -0.003   0.000  -0.000   0.004  -0.000
-13.111  15.840  -0.000   0.004  -0.000   0.000  -0.005   0.000
  0.000  -0.000  -6.794  -0.000   0.000   7.825   0.000  -0.000
 -0.003   0.004  -0.000  -6.787  -0.000   0.000   7.815   0.000
  0.000  -0.000   0.000  -0.000  -6.842  -0.000   0.000   7.889
 -0.000   0.000   7.825   0.000  -0.000  -8.761  -0.000   0.000
  0.004  -0.005   0.000   7.815   0.000  -0.000  -8.747  -0.000
 -0.000   0.000  -0.000   0.000   7.889   0.000  -0.000  -8.846
 total augmentation occupancy for first ion, spin component:           1
  2.617   0.353   0.000  -0.000   0.000   0.000   0.002   0.000
  0.353   0.067   0.000   0.007   0.000   0.000   0.003   0.000
  0.000   0.000   2.061  -0.000  -0.000   0.232  -0.000  -0.000
 -0.000   0.007  -0.000   2.071   0.000  -0.000   0.227   0.000
  0.000   0.000  -0.000   0.000   2.230  -0.000  -0.000   0.315
  0.000   0.000   0.232  -0.000  -0.000   0.030  -0.000  -0.000
  0.002   0.003  -0.000   0.227  -0.000  -0.000   0.029   0.000
  0.000   0.000  -0.000   0.000   0.315  -0.000   0.000   0.049


------------------------ aborting loop because EDIFF is reached ----------------------------------------


 


 total charge     
 
# of ion     s       p       d       tot
----------------------------------------
  1        1.584   3.400   0.000   4.984
  2        1.558   3.546   0.000   5.104
  3        1.575   3.451   0.000   5.026
  4        1.556   0.326   9.866  11.748
  5        2.212   6.269   1.559  10.039
------------------------------------------------
tot        8.485  16.993  11.425  36.902
 
    FORLOC:  cpu time    0.0009: real time    0.0047
    FORHF :  cpu time 9881.5807: real time 9882.7711
    FORNL :  cpu time    0.3827: real time    0.6533
    STRESS:  cpu time    1.3776: real time    1.3829
    FORCOR:  cpu time    0.0934: real time    0.1031
    OFIELD:  cpu time    0.0001: real time    0.0001

  FORCE on cell =-STRESS in cart. coord.  units (eV):
  Direction    XX          YY          ZZ          XY          YZ          ZX
  --------------------------------------------------------------------------------------
  Alpha Z   182.16502   182.16502   182.16502
  Ewald   -1163.02254 -1163.02254 -1234.75565     0.00000    -0.00000    -0.00000
  Hartree   364.23411   364.23411   314.85914     0.00000    -0.00000    -0.00000
  E(xc)    -166.22255  -166.22255  -166.24318     0.00000    -0.00000    -0.00000
  Local     -44.03878   -44.03878    75.29643    -0.00000     0.00000     0.00000
  n-local   115.31025   124.99396   118.41297    -0.16353     0.05637    -0.19928
  augment   190.51149   190.51149   190.99350    -0.00000     0.00000     0.00000
  Kinetic   711.70312   710.03771   714.24232     0.29801     0.45007     0.52015
  Fock            NaN         NaN         NaN         NaN         NaN         NaN
  -------------------------------------------------------------------------------------
  Total           NaN         NaN         NaN         NaN         NaN         NaN
  in kB           NaN         NaN         NaN         NaN         NaN         NaN
  external pressure =         NaN kB  Pullay stress =        0.00 kB


 VOLUME and BASIS-vectors are now :
 -----------------------------------------------------------------------------
  energy-cutoff  :      520.00
  volume of cell :       65.10
      direct lattice vectors                 reciprocal lattice vectors
     3.988245693  0.000000000  0.000000000     0.250736809  0.000000000  0.000000000
     0.000000000  3.988245693  0.000000000     0.000000000  0.250736809  0.000000000
     0.000000000  0.000000000  4.092744452     0.000000000  0.000000000  0.244334825

  length of vectors
     3.988245693  3.988245693  4.092744452     0.250736809  0.250736809  0.244334825


 FORCES acting on ions:
    Electron-Ion                     Ewald-Force                    Non-Local-Force
 -----------------------------------------------------------------------------------------------
   0.154E-07 -.260E-08 0.246E+02   0.693E-14 0.103E-14 -.257E+02   -.867E-18 0.000E+00 0.939E+00
   -.912E-09 0.156E-07 0.246E+02   0.172E-13 0.297E-14 -.257E+02   0.000E+00 0.000E+00 0.939E+00
   0.628E-08 -.829E-08 0.474E+02   0.161E-13 0.784E-14 -.544E+02   0.000E+00 0.694E-17 0.711E+01
   -.970E-08 0.584E-08 -.115E+03   -.323E-13 0.498E-16 0.122E+03   0.000E+00 0.000E+00 -.716E+01
   -.319E-08 -.948E-08 0.137E+02   -.852E-14 -.109E-13 -.162E+02   0.000E+00 0.347E-17 -.168E+01
 -----------------------------------------------------------------------------------------------
   0.777E-08 0.104E-08 -.420E+01   -.540E-15 0.946E-15 -.107E-13   -.867E-18 0.104E-16 0.145E+00
 
 
 POSITION                                       TOTAL-FORCE (eV/Angst)
 -----------------------------------------------------------------------------------
      0.00000      1.99412      2.50445              NaN           NaN           NaN
      1.99412      0.00000      2.50445              NaN           NaN           NaN
      1.99412      1.99412      0.40790              NaN           NaN           NaN
      0.00000      0.00000      0.06662              NaN           NaN           NaN
      1.99412      1.99412      2.28216              NaN           NaN           NaN
 -----------------------------------------------------------------------------------
    total drift:                                     NaN           NaN           NaN


--------------------------------------------------------------------------------------------------------



  FREE ENERGIE OF THE ION-ELECTRON SYSTEM (eV)
  ---------------------------------------------------
  free  energy   TOTEN  =       -46.50726793 eV

  energy  without entropy=      -46.50726793  energy(sigma->0) =      -46.50726793
 


--------------------------------------------------------------------------------------------------------


    POTLOK:  cpu time    0.3189: real time    0.4683


--------------------------------------------------------------------------------------------------------


     LOOP+:  cpu time42330.0485: real time42353.6510
    4ORBIT:  cpu time    0.0000: real time    0.0000
 


 total charge     
 
# of ion     s       p       d       tot
----------------------------------------
  1        1.584   3.400   0.000   4.984
  2        1.558   3.546   0.000   5.104
  3        1.575   3.451   0.000   5.026
  4        1.556   0.326   9.866  11.748
  5        2.212   6.269   1.559  10.039
------------------------------------------------
tot        8.485  16.993  11.425  36.902
 

 total amount of memory used by VASP on root node    88162. kBytes
========================================================================

   base      :      30000. kBytes
   nonl-proj :      33979. kBytes
   fftplans  :       1014. kBytes
   grid      :        618. kBytes
   one-center:         15. kBytes
   HF        :         23. kBytes
   nonlr-proj:       2518. kBytes
   wavefun   :      19995. kBytes
 
  
  
 General timing and accounting informations for this job:
 ========================================================
  
                  Total CPU time used (sec):    42499.871
                            User time (sec):    42495.328
                          System time (sec):        4.542
                         Elapsed time (sec):    42525.379
  
                   Maximum memory used (kb):      361256.
                   Average memory used (kb):           0.
  
                          Minor page faults:      2240685
                          Major page faults:           71
                 Voluntary context switches:         6656
