 vasp.5.4.1 24Jun15 (build Nov 23 2015 09:58:10) complex                        
  
 executed on             LinuxIFC date 2022.11.12  20:47:23
 running on   48 total cores
 distrk:  each k-point on   48 cores,    1 groups
 distr:  one band on NCORES_PER_BAND=   8 cores,    6 groups


--------------------------------------------------------------------------------------------------------


 INCAR:
 POTCAR:    PAW_PBE Cs_sv 08Apr2002               
 POTCAR:    PAW_PBE F 08Apr2002                   
 POTCAR:    PAW_PBE Li_sv 10Sep2004               
 POTCAR:    PAW_PBE Cs_sv 08Apr2002               
   VRHFIN =Cs: 5s5p6s                                                           
   LEXCH  = PE                                                                  
   EATOM  =   555.6835 eV,   40.8416 Ry                                         
                                                                                
   TITEL  = PAW_PBE Cs_sv 08Apr2002                                             
   LULTRA =        F    use ultrasoft PP ?                                      
   IUNSCR =        1    unscreen: 0-lin 1-nonlin 2-no                           
   RPACOR =    2.200    partial core radius                                     
   POMASS =  132.900; ZVAL   =    9.000    mass and valenz                      
   RCORE  =    2.500    outmost cutoff radius                                   
   RWIGS  =    2.500; RWIGS  =    1.323    wigner-seitz radius (au A)           
   ENMAX  =  220.318; ENMIN  =  165.238 eV                                      
   RCLOC  =    2.207    cutoff for local pot                                    
   LCOR   =        T    correct aug charges                                     
   LPAW   =        T    paw PP                                                  
   EAUG   =  407.933                                                            
   DEXC   =    0.000                                                            
   RMAX   =    2.554    core radius for proj-oper                               
   RAUG   =    1.300    factor for augmentation sphere                          
   RDEP   =    2.590    radius for radial grids                                 
   RDEPT  =    2.117    core radius for aug-charge                              
                                                                                
   Atomic configuration                                                         
   13 entries                                                                   
     n  l   j            E        occ.                                          
     1  0  0.50    -35790.1377   2.0000                                         
     2  0  0.50     -5613.6201   2.0000                                         
     2  1  1.50     -5035.0101   6.0000                                         
     3  0  0.50     -1167.0767   2.0000                                         
     3  1  1.50      -980.9754   6.0000                                         
     3  2  2.50      -708.0703  10.0000                                         
     4  0  0.50      -220.2386   2.0000                                         
     4  1  1.50      -160.7596   6.0000                                         
     4  2  2.50       -74.2354  10.0000                                         
     5  0  0.50       -26.7287   2.0000                                         
     6  0  0.50        -2.0862   1.0000                                         
     5  1  1.50       -13.5159   6.0000                                         
     5  2  2.50        -0.4136   0.0000                                         
   Description                                                                  
     l       E           TYP  RCUT    TYP  RCUT                                 
     0    -26.7287425     23  1.900                                             
     0     -2.0862306     23  1.900                                             
     1    -13.5158719     23  2.500                                             
     1     -2.7211652     23  2.500                                             
     2     -0.4136171     23  2.500                                             
  local pseudopotential read in
  partial core-charges read in
  partial kinetic energy density read in
  atomic valenz-charges read in
  non local Contribution for L=           0  read in
    real space projection operators read in
  non local Contribution for L=           0  read in
    real space projection operators read in
  non local Contribution for L=           1  read in
    real space projection operators read in
  non local Contribution for L=           1  read in
    real space projection operators read in
  non local Contribution for L=           2  read in
    real space projection operators read in
    PAW grid and wavefunctions read in
 
   number of l-projection  operators is LMAX  =           5
   number of lm-projection operators is LMMAX =          13
 
 POTCAR:    PAW_PBE F 08Apr2002                   
   VRHFIN =F: s2p5                                                              
   LEXCH  = PE                                                                  
   EATOM  =   659.6475 eV,   48.4827 Ry                                         
                                                                                
   TITEL  = PAW_PBE F 08Apr2002                                                 
   LULTRA =        F    use ultrasoft PP ?                                      
   IUNSCR =        1    unscreen: 0-lin 1-nonlin 2-no                           
   RPACOR =    1.200    partial core radius                                     
   POMASS =   18.998; ZVAL   =    7.000    mass and valenz                      
   RCORE  =    1.520    outmost cutoff radius                                   
   RWIGS  =    1.500; RWIGS  =    0.794    wigner-seitz radius (au A)           
   ENMAX  =  400.000; ENMIN  =  300.000 eV                                      
   ICORE  =        2    local potential                                         
   LCOR   =        T    correct aug charges                                     
   LPAW   =        T    paw PP                                                  
   EAUG   =  613.614                                                            
   RMAX   =    1.555    core radius for proj-oper                               
   RAUG   =    1.300    factor for augmentation sphere                          
   RDEP   =    1.539    radius for radial grids                                 
   RDEPT  =    1.299    core radius for aug-charge                              
                                                                                
   Atomic configuration                                                         
    4 entries                                                                   
     n  l   j            E        occ.                                          
     1  0  0.50      -663.3661   2.0000                                         
     2  0  0.50       -29.8995   2.0000                                         
     2  1  0.50       -11.1114   5.0000                                         
     3  2  1.50       -10.8847   0.0000                                         
   Description                                                                  
     l       E           TYP  RCUT    TYP  RCUT                                 
     0    -29.8995018     23  1.200                                             
     0     -9.5240782     23  1.200                                             
     1    -11.1113914     23  1.520                                             
     1      1.3605826     23  1.520                                             
     2    -10.8846608      7  1.500                                             
  local pseudopotential read in
  partial core-charges read in
  partial kinetic energy density read in
  atomic valenz-charges read in
  non local Contribution for L=           0  read in
    real space projection operators read in
  non local Contribution for L=           0  read in
    real space projection operators read in
  non local Contribution for L=           1  read in
    real space projection operators read in
  non local Contribution for L=           1  read in
    real space projection operators read in
    PAW grid and wavefunctions read in
 
   number of l-projection  operators is LMAX  =           4
   number of lm-projection operators is LMMAX =           8
 
 POTCAR:    PAW_PBE Li_sv 10Sep2004               
   VRHFIN =Li: 1s2s2p                                                           
   LEXCH  = PE                                                                  
   EATOM  =   202.7858 eV,   14.9043 Ry                                         
                                                                                
   TITEL  = PAW_PBE Li_sv 10Sep2004                                             
   LULTRA =        F    use ultrasoft PP ?                                      
   IUNSCR =        0    unscreen: 0-lin 1-nonlin 2-no                           
   RPACOR =    0.000    partial core radius                                     
   POMASS =    7.010; ZVAL   =    3.000    mass and valenz                      
   RCORE  =    1.700    outmost cutoff radius                                   
   RWIGS  =    2.050; RWIGS  =    1.085    wigner-seitz radius (au A)           
   ENMAX  =  499.034; ENMIN  =  374.276 eV                                      
   ICORE  =        2    local potential                                         
   LCOR   =        T    correct aug charges                                     
   LPAW   =        T    paw PP                                                  
   EAUG   =  628.945                                                            
   RMAX   =    1.732    core radius for proj-oper                               
   RAUG   =    1.300    factor for augmentation sphere                          
   RDEP   =    1.728    radius for radial grids                                 
   RDEPT  =    1.329    core radius for aug-charge                              
                                                                                
   Atomic configuration                                                         
    4 entries                                                                   
     n  l   j            E        occ.                                          
     1  0  0.50       -51.8549   2.0000                                         
     2  0  0.50        -2.8742   1.0000                                         
     2  1  0.50        -1.3606   0.0000                                         
     3  2  1.50        -1.3606   0.0000                                         
   Description                                                                  
     l       E           TYP  RCUT    TYP  RCUT                                 
     0    -51.8548813     23  1.400                                             
     0     -2.8742052     23  1.700                                             
     1     -1.3605826     23  1.400                                             
     2     -1.3605826     23  1.400                                             
  local pseudopotential read in
  atomic valenz-charges read in
  non local Contribution for L=           0  read in
    real space projection operators read in
  non local Contribution for L=           0  read in
    real space projection operators read in
  non local Contribution for L=           1  read in
    real space projection operators read in
    PAW grid and wavefunctions read in
 
   number of l-projection  operators is LMAX  =           3
   number of lm-projection operators is LMMAX =           5
 
  PAW_PBE Cs_sv 08Apr2002               :
 energy of atom  1       EATOM= -555.6835
 kinetic energy error for atom=    0.0016 (will be added to EATOM!!)
  PAW_PBE F 08Apr2002                   :
 energy of atom  2       EATOM= -659.6475
 kinetic energy error for atom=    0.0323 (will be added to EATOM!!)
  PAW_PBE Li_sv 10Sep2004               :
 energy of atom  3       EATOM= -202.7858
 kinetic energy error for atom=    0.0130 (will be added to EATOM!!)
 
 
 POSCAR: Primitive Cell                          
  positions in direct lattice
  No initial velocities read in
 exchange correlation table for  LEXCH =        8
   RHO(1)=    0.500       N(1)  =     2000
   RHO(2)=  100.500       N(2)  =     4000
 


--------------------------------------------------------------------------------------------------------


 ion  position               nearest neighbor table
   1  0.000  0.000  0.000-
   2  0.750  0.250  0.500-   5 2.12   6 2.12   5 2.12   6 2.12
   3  0.500  0.500  0.000-   5 1.96   6 1.96
   4  0.250  0.750  0.500-   5 2.12   6 2.12   5 2.12   6 2.12
   5  0.309  0.309  0.000-   3 1.96   2 2.12   4 2.12   4 2.12   2 2.12
   6  0.691  0.691  0.000-   3 1.96   2 2.12   4 2.12   2 2.12   4 2.12
 
  LATTYP: Found a body centered tetragonal cell.
 ALAT       =     4.0582964041
 C/A-ratio  =     2.5264410174
  
  Lattice vectors:
  
 A1 = (  -2.0291482021,   2.0291482021,   5.1265232481)
 A2 = (   2.0291482021,  -2.0291482021,   5.1265232481)
 A3 = (   2.0291482021,   2.0291482021,  -5.1265232481)


Analysis of symmetry for initial positions (statically):
=====================================================================
 Subroutine PRICEL returns:
 Original cell was already a primitive cell.
 

 Routine SETGRP: Setting up the symmetry group for a 
 body centered tetragonal supercell.


 Subroutine GETGRP returns: Found 16 space group operations
 (whereof 16 operations were pure point group operations)
 out of a pool of 16 trial point group operations.


The static configuration has the point symmetry D_4h.


Analysis of symmetry for dynamics (positions and initial velocities):
=====================================================================
 Subroutine PRICEL returns:
 Original cell was already a primitive cell.
 

 Routine SETGRP: Setting up the symmetry group for a 
 body centered tetragonal supercell.


 Subroutine GETGRP returns: Found 16 space group operations
 (whereof 16 operations were pure point group operations)
 out of a pool of 16 trial point group operations.


The dynamic configuration has the point symmetry D_4h.
 
 
 KPOINTS: 0.030   9   9  12  239  0.040  154    9 
  k-points in reciprocal lattice
Space group operators:
 irot       det(A)        alpha          n_x          n_y          n_z        tau_x        tau_y        tau_z
    1     1.000000     0.000000     1.000000     0.000000     0.000000     0.000000     0.000000     0.000000
    2    -1.000000     0.000000     1.000000     0.000000     0.000000     0.000000     0.000000     0.000000
    3     1.000000    90.000000     0.000000     0.000000    -1.000000     0.000000     0.000000     0.000000
    4    -1.000000    90.000000     0.000000     0.000000    -1.000000     0.000000     0.000000     0.000000
    5     1.000000   179.999999     0.000000     0.000000     1.000000     0.000000     0.000000     0.000000
    6    -1.000000   179.999999     0.000000     0.000000     1.000000     0.000000     0.000000     0.000000
    7     1.000000    90.000000     0.000000     0.000000     1.000000     0.000000     0.000000     0.000000
    8    -1.000000    90.000000     0.000000     0.000000     1.000000     0.000000     0.000000     0.000000
    9     1.000000   180.000000     0.000000     1.000000     0.000000     0.000000     0.000000     0.000000
   10    -1.000000   180.000000     0.000000     1.000000     0.000000     0.000000     0.000000     0.000000
   11     1.000000   180.000000     0.707107     0.707107     0.000000     0.000000     0.000000     0.000000
   12    -1.000000   180.000000     0.707107     0.707107     0.000000     0.000000     0.000000     0.000000
   13     1.000000   180.000000     1.000000     0.000000     0.000000     0.000000     0.000000     0.000000
   14    -1.000000   180.000000     1.000000     0.000000     0.000000     0.000000     0.000000     0.000000
   15     1.000000   180.000000     0.707107    -0.707107     0.000000     0.000000     0.000000     0.000000
   16    -1.000000   180.000000     0.707107    -0.707107     0.000000     0.000000     0.000000     0.000000

 ----------------------------------------------------------------------------- 
|                                                                             |
|           W    W    AA    RRRRR   N    N  II  N    N   GGGG   !!!           |
|           W    W   A  A   R    R  NN   N  II  NN   N  G    G  !!!           |
|           W    W  A    A  R    R  N N  N  II  N N  N  G       !!!           |
|           W WW W  AAAAAA  RRRRR   N  N N  II  N  N N  G  GGG   !            |
|           WW  WW  A    A  R   R   N   NN  II  N   NN  G    G                |
|           W    W  A    A  R    R  N    N  II  N    N   GGGG   !!!           |
|                                                                             |
|      Your generating k-point grid is not commensurate to the symmetry       |
|      of the lattice.  This can cause   slow convergence with respect        |
|      to k-points for HF type calculations                                   |
|      suggested SOLUTIONS:                                                   |
|       ) if not already the case, use automatic k-point generation           |
|       ) shift your grid to Gamma (G) (e.g. required for hex or fcc lattice) |
|                                                                             |
 ----------------------------------------------------------------------------- 

 
 Subroutine IBZKPT_HF returns following result:
 ==============================================
 
 Found   3151 k-points in 1st BZ
 the following   3151 k-points will be used (e.g. in the exchange kernel)
 Following reciprocal coordinates:   # in IRBZ
  0.000000  0.000000  0.000000    0.00102881   1 t-inv F
  0.111111  0.000000  0.000000    0.00051440   2 t-inv F
  0.222222  0.000000  0.000000    0.00051440   3 t-inv F
  0.333333  0.000000  0.000000    0.00102881   4 t-inv F
  0.444444  0.000000  0.000000    0.00051440   5 t-inv F
  0.111111  0.111111  0.000000    0.00025720   6 t-inv F
  0.222222  0.111111  0.000000    0.00051440   7 t-inv F
  0.333333  0.111111  0.000000    0.00051440   8 t-inv F
  0.444444  0.111111  0.000000    0.00025720   9 t-inv F
 -0.444444  0.111111  0.000000    0.00051440  10 t-inv F
 -0.333333  0.111111  0.000000    0.00051440  11 t-inv F
 -0.222222  0.111111  0.000000    0.00025720  12 t-inv F
 -0.111111  0.111111  0.000000    0.00051440  13 t-inv F
  0.222222  0.222222  0.000000    0.00025720  14 t-inv F
  0.333333  0.222222  0.000000    0.00051440  15 t-inv F
  0.444444  0.222222  0.000000    0.00051440  16 t-inv F
 -0.444444  0.222222  0.000000    0.00025720  17 t-inv F
 -0.333333  0.222222  0.000000    0.00051440  18 t-inv F
 -0.222222  0.222222  0.000000    0.00051440  19 t-inv F
  0.333333  0.333333  0.000000    0.00102881  20 t-inv F
  0.444444  0.333333  0.000000    0.00051440  21 t-inv F
 -0.444444  0.333333  0.000000    0.00051440  22 t-inv F
 -0.333333  0.333333  0.000000    0.00102881  23 t-inv F
  0.444444  0.444444  0.000000    0.00025720  24 t-inv F
 -0.444444  0.444444  0.000000    0.00051440  25 t-inv F
  0.000000  0.000000  0.083333    0.00051440  26 t-inv F
  0.111111  0.000000  0.083333    0.00025720  27 t-inv F
  0.222222  0.000000  0.083333    0.00025720  28 t-inv F
  0.333333  0.000000  0.083333    0.00051440  29 t-inv F
  0.444444  0.000000  0.083333    0.00025720  30 t-inv F
 -0.444444  0.000000  0.083333    0.00025720  31 t-inv F
 -0.333333  0.000000  0.083333    0.00051440  32 t-inv F
 -0.222222  0.000000  0.083333    0.00025720  33 t-inv F
 -0.111111  0.000000  0.083333    0.00025720  34 t-inv F
  0.111111  0.111111  0.083333    0.00025720  35 t-inv F
  0.222222  0.111111  0.083333    0.00051440  36 t-inv F
  0.333333  0.111111  0.083333    0.00025720  37 t-inv F
  0.444444  0.111111  0.083333    0.00025720  38 t-inv F
 -0.444444  0.111111  0.083333    0.00051440  39 t-inv F
 -0.333333  0.111111  0.083333    0.00025720  40 t-inv F
 -0.222222  0.111111  0.083333    0.00025720  41 t-inv F
 -0.111111  0.111111  0.083333    0.00051440  42 t-inv F
  0.222222  0.222222  0.083333    0.00025720  43 t-inv F
  0.333333  0.222222  0.083333    0.00025720  44 t-inv F
  0.444444  0.222222  0.083333    0.00051440  45 t-inv F
 -0.444444  0.222222  0.083333    0.00025720  46 t-inv F
 -0.333333  0.222222  0.083333    0.00025720  47 t-inv F
 -0.222222  0.222222  0.083333    0.00051440  48 t-inv F
 -0.111111  0.222222  0.083333    0.00025720  49 t-inv F
  0.333333  0.333333  0.083333    0.00051440  50 t-inv F
  0.444444  0.333333  0.083333    0.00025720  51 t-inv F
 -0.444444  0.333333  0.083333    0.00025720  52 t-inv F
 -0.333333  0.333333  0.083333    0.00051440  53 t-inv F
 -0.222222  0.333333  0.083333    0.00025720  54 t-inv F
 -0.111111  0.333333  0.083333    0.00025720  55 t-inv F
  0.444444  0.444444  0.083333    0.00025720  56 t-inv F
 -0.444444  0.444444  0.083333    0.00051440  57 t-inv F
 -0.333333  0.444444  0.083333    0.00025720  58 t-inv F
 -0.222222  0.444444  0.083333    0.00025720  59 t-inv F
 -0.111111  0.444444  0.083333    0.00051440  60 t-inv F
 -0.444444 -0.444444  0.083333    0.00025720  61 t-inv F
 -0.333333 -0.444444  0.083333    0.00025720  62 t-inv F
 -0.222222 -0.444444  0.083333    0.00051440  63 t-inv F
 -0.111111 -0.444444  0.083333    0.00025720  64 t-inv F
 -0.333333 -0.333333  0.083333    0.00051440  65 t-inv F
 -0.222222 -0.333333  0.083333    0.00025720  66 t-inv F
 -0.111111 -0.333333  0.083333    0.00025720  67 t-inv F
 -0.222222 -0.222222  0.083333    0.00025720  68 t-inv F
 -0.111111 -0.222222  0.083333    0.00051440  69 t-inv F
 -0.111111 -0.111111  0.083333    0.00025720  70 t-inv F
  0.000000  0.000000  0.166667    0.00051440  71 t-inv F
  0.111111  0.000000  0.166667    0.00025720  72 t-inv F
  0.222222  0.000000  0.166667    0.00025720  73 t-inv F
  0.333333  0.000000  0.166667    0.00051440  74 t-inv F
  0.444444  0.000000  0.166667    0.00025720  75 t-inv F
 -0.444444  0.000000  0.166667    0.00025720  76 t-inv F
 -0.333333  0.000000  0.166667    0.00051440  77 t-inv F
 -0.222222  0.000000  0.166667    0.00025720  78 t-inv F
 -0.111111  0.000000  0.166667    0.00025720  79 t-inv F
  0.111111  0.111111  0.166667    0.00025720  80 t-inv F
  0.222222  0.111111  0.166667    0.00051440  81 t-inv F
  0.333333  0.111111  0.166667    0.00025720  82 t-inv F
  0.444444  0.111111  0.166667    0.00025720  83 t-inv F
 -0.444444  0.111111  0.166667    0.00051440  84 t-inv F
 -0.333333  0.111111  0.166667    0.00025720  85 t-inv F
 -0.222222  0.111111  0.166667    0.00025720  86 t-inv F
 -0.111111  0.111111  0.166667    0.00051440  87 t-inv F
  0.222222  0.222222  0.166667    0.00025720  88 t-inv F
  0.333333  0.222222  0.166667    0.00025720  89 t-inv F
  0.444444  0.222222  0.166667    0.00051440  90 t-inv F
 -0.444444  0.222222  0.166667    0.00025720  91 t-inv F
 -0.333333  0.222222  0.166667    0.00025720  92 t-inv F
 -0.222222  0.222222  0.166667    0.00051440  93 t-inv F
 -0.111111  0.222222  0.166667    0.00025720  94 t-inv F
  0.333333  0.333333  0.166667    0.00051440  95 t-inv F
  0.444444  0.333333  0.166667    0.00025720  96 t-inv F
 -0.444444  0.333333  0.166667    0.00025720  97 t-inv F
 -0.333333  0.333333  0.166667    0.00051440  98 t-inv F
 -0.222222  0.333333  0.166667    0.00025720  99 t-inv F
 -0.111111  0.333333  0.166667    0.00025720 100 t-inv F
  0.444444  0.444444  0.166667    0.00025720 101 t-inv F
 -0.444444  0.444444  0.166667    0.00051440 102 t-inv F
 -0.333333  0.444444  0.166667    0.00025720 103 t-inv F
 -0.222222  0.444444  0.166667    0.00025720 104 t-inv F
 -0.111111  0.444444  0.166667    0.00051440 105 t-inv F
 -0.444444 -0.444444  0.166667    0.00025720 106 t-inv F
 -0.333333 -0.444444  0.166667    0.00025720 107 t-inv F
 -0.222222 -0.444444  0.166667    0.00051440 108 t-inv F
 -0.111111 -0.444444  0.166667    0.00025720 109 t-inv F
 -0.333333 -0.333333  0.166667    0.00051440 110 t-inv F
 -0.222222 -0.333333  0.166667    0.00025720 111 t-inv F
 -0.111111 -0.333333  0.166667    0.00025720 112 t-inv F
 -0.222222 -0.222222  0.166667    0.00025720 113 t-inv F
 -0.111111 -0.222222  0.166667    0.00051440 114 t-inv F
 -0.111111 -0.111111  0.166667    0.00025720 115 t-inv F
  0.000000  0.000000  0.250000    0.00051440 116 t-inv F
  0.111111  0.000000  0.250000    0.00025720 117 t-inv F
  0.222222  0.000000  0.250000    0.00025720 118 t-inv F
  0.333333  0.000000  0.250000    0.00051440 119 t-inv F
  0.444444  0.000000  0.250000    0.00025720 120 t-inv F
 -0.444444  0.000000  0.250000    0.00025720 121 t-inv F
 -0.222222  0.000000  0.250000    0.00025720 122 t-inv F
 -0.111111  0.000000  0.250000    0.00025720 123 t-inv F
  0.111111  0.111111  0.250000    0.00025720 124 t-inv F
  0.222222  0.111111  0.250000    0.00051440 125 t-inv F
  0.333333  0.111111  0.250000    0.00025720 126 t-inv F
  0.444444  0.111111  0.250000    0.00025720 127 t-inv F
 -0.333333  0.111111  0.250000    0.00025720 128 t-inv F
 -0.222222  0.111111  0.250000    0.00025720 129 t-inv F
 -0.111111  0.111111  0.250000    0.00051440 130 t-inv F
  0.222222  0.222222  0.250000    0.00025720 131 t-inv F
  0.333333  0.222222  0.250000    0.00025720 132 t-inv F
 -0.444444  0.222222  0.250000    0.00025720 133 t-inv F
 -0.333333  0.222222  0.250000    0.00025720 134 t-inv F
 -0.222222  0.222222  0.250000    0.00051440 135 t-inv F
 -0.111111  0.222222  0.250000    0.00025720 136 t-inv F
  0.444444  0.333333  0.250000    0.00025720 137 t-inv F
 -0.444444  0.333333  0.250000    0.00025720 138 t-inv F
 -0.333333  0.333333  0.250000    0.00051440 139 t-inv F
 -0.222222  0.333333  0.250000    0.00025720 140 t-inv F
 -0.111111  0.333333  0.250000    0.00025720 141 t-inv F
  0.444444  0.444444  0.250000    0.00025720 142 t-inv F
 -0.444444  0.444444  0.250000    0.00051440 143 t-inv F
 -0.333333  0.444444  0.250000    0.00025720 144 t-inv F
 -0.222222  0.444444  0.250000    0.00025720 145 t-inv F
 -0.111111  0.444444  0.250000    0.00051440 146 t-inv F
 -0.444444 -0.444444  0.250000    0.00025720 147 t-inv F
 -0.333333 -0.444444  0.250000    0.00025720 148 t-inv F
 -0.222222 -0.444444  0.250000    0.00051440 149 t-inv F
 -0.111111 -0.444444  0.250000    0.00025720 150 t-inv F
 -0.333333 -0.333333  0.250000    0.00051440 151 t-inv F
 -0.222222 -0.333333  0.250000    0.00025720 152 t-inv F
 -0.111111 -0.333333  0.250000    0.00025720 153 t-inv F
 -0.222222 -0.222222  0.250000    0.00025720 154 t-inv F
 -0.111111 -0.111111  0.250000    0.00025720 155 t-inv F
  0.111111  0.111111  0.333333    0.00025720 156 t-inv F
  0.222222  0.111111  0.333333    0.00051440 157 t-inv F
  0.333333  0.111111  0.333333    0.00051440 158 t-inv F
  0.444444  0.111111  0.333333    0.00025720 159 t-inv F
 -0.333333  0.111111  0.333333    0.00051440 160 t-inv F
 -0.222222  0.111111  0.333333    0.00025720 161 t-inv F
 -0.111111  0.111111  0.333333    0.00051440 162 t-inv F
  0.222222  0.222222  0.333333    0.00025720 163 t-inv F
 -0.444444  0.222222  0.333333    0.00025720 164 t-inv F
 -0.333333  0.222222  0.333333    0.00051440 165 t-inv F
 -0.222222  0.222222  0.333333    0.00051440 166 t-inv F
 -0.111111  0.222222  0.333333    0.00025720 167 t-inv F
  0.444444  0.333333  0.333333    0.00051440 168 t-inv F
 -0.444444  0.333333  0.333333    0.00051440 169 t-inv F
 -0.333333  0.333333  0.333333    0.00102881 170 t-inv F
  0.444444  0.444444  0.333333    0.00025720 171 t-inv F
 -0.444444  0.444444  0.333333    0.00051440 172 t-inv F
 -0.333333  0.444444  0.333333    0.00051440 173 t-inv F
 -0.222222  0.444444  0.333333    0.00025720 174 t-inv F
 -0.111111  0.444444  0.333333    0.00051440 175 t-inv F
 -0.444444 -0.444444  0.333333    0.00025720 176 t-inv F
 -0.333333 -0.444444  0.333333    0.00051440 177 t-inv F
 -0.222222 -0.444444  0.333333    0.00051440 178 t-inv F
 -0.111111 -0.444444  0.333333    0.00025720 179 t-inv F
 -0.333333 -0.333333  0.333333    0.00102881 180 t-inv F
 -0.222222 -0.333333  0.333333    0.00051440 181 t-inv F
 -0.111111 -0.333333  0.333333    0.00051440 182 t-inv F
 -0.222222 -0.222222  0.333333    0.00025720 183 t-inv F
 -0.111111 -0.111111  0.333333    0.00025720 184 t-inv F
  0.000000  0.000000  0.416667    0.00051440 185 t-inv F
  0.111111  0.000000  0.416667    0.00025720 186 t-inv F
  0.222222  0.000000  0.416667    0.00025720 187 t-inv F
  0.444444  0.000000  0.416667    0.00025720 188 t-inv F
 -0.444444  0.000000  0.416667    0.00025720 189 t-inv F
 -0.222222  0.000000  0.416667    0.00025720 190 t-inv F
 -0.111111  0.000000  0.416667    0.00025720 191 t-inv F
  0.111111  0.111111  0.416667    0.00025720 192 t-inv F
  0.333333  0.111111  0.416667    0.00025720 193 t-inv F
  0.444444  0.111111  0.416667    0.00025720 194 t-inv F
 -0.333333  0.111111  0.416667    0.00025720 195 t-inv F
 -0.222222  0.111111  0.416667    0.00025720 196 t-inv F
 -0.111111  0.111111  0.416667    0.00051440 197 t-inv F
  0.222222  0.222222  0.416667    0.00025720 198 t-inv F
  0.333333  0.222222  0.416667    0.00025720 199 t-inv F
 -0.444444  0.222222  0.416667    0.00025720 200 t-inv F
 -0.333333  0.222222  0.416667    0.00025720 201 t-inv F
 -0.222222  0.222222  0.416667    0.00051440 202 t-inv F
 -0.111111  0.222222  0.416667    0.00025720 203 t-inv F
  0.444444  0.333333  0.416667    0.00025720 204 t-inv F
 -0.444444  0.333333  0.416667    0.00025720 205 t-inv F
 -0.333333  0.333333  0.416667    0.00051440 206 t-inv F
 -0.222222  0.333333  0.416667    0.00025720 207 t-inv F
 -0.111111  0.333333  0.416667    0.00025720 208 t-inv F
  0.444444  0.444444  0.416667    0.00025720 209 t-inv F
 -0.444444  0.444444  0.416667    0.00051440 210 t-inv F
 -0.333333  0.444444  0.416667    0.00025720 211 t-inv F
 -0.222222  0.444444  0.416667    0.00025720 212 t-inv F
 -0.444444 -0.444444  0.416667    0.00025720 213 t-inv F
 -0.333333 -0.444444  0.416667    0.00025720 214 t-inv F
 -0.111111 -0.444444  0.416667    0.00025720 215 t-inv F
 -0.222222 -0.333333  0.416667    0.00025720 216 t-inv F
 -0.111111 -0.333333  0.416667    0.00025720 217 t-inv F
 -0.222222 -0.222222  0.416667    0.00025720 218 t-inv F
 -0.111111 -0.111111  0.416667    0.00025720 219 t-inv F
  0.000000  0.000000  0.500000    0.00051440 220 t-inv F
  0.111111  0.000000  0.500000    0.00025720 221 t-inv F
  0.222222  0.000000  0.500000    0.00025720 222 t-inv F
  0.444444  0.000000  0.500000    0.00025720 223 t-inv F
  0.111111  0.111111  0.500000    0.00025720 224 t-inv F
  0.333333  0.111111  0.500000    0.00025720 225 t-inv F
  0.444444  0.111111  0.500000    0.00025720 226 t-inv F
 -0.333333  0.111111  0.500000    0.00025720 227 t-inv F
 -0.222222  0.111111  0.500000    0.00025720 228 t-inv F
 -0.111111  0.111111  0.500000    0.00051440 229 t-inv F
  0.222222  0.222222  0.500000    0.00025720 230 t-inv F
  0.333333  0.222222  0.500000    0.00025720 231 t-inv F
 -0.444444  0.222222  0.500000    0.00025720 232 t-inv F
 -0.333333  0.222222  0.500000    0.00025720 233 t-inv F
 -0.222222  0.222222  0.500000    0.00051440 234 t-inv F
  0.444444  0.333333  0.500000    0.00025720 235 t-inv F
 -0.444444  0.333333  0.500000    0.00025720 236 t-inv F
 -0.333333  0.333333  0.500000    0.00051440 237 t-inv F
  0.444444  0.444444  0.500000    0.00025720 238 t-inv F
 -0.444444  0.444444  0.500000    0.00051440 239 t-inv F
  0.000000  0.000000  0.000000    0.00000000 240 t-inv F
  0.000000  0.000000  0.019231    0.00000000 241 t-inv F
  0.000000  0.000000  0.038462    0.00000000 242 t-inv F
  0.000000  0.000000  0.057692    0.00000000 243 t-inv F
  0.000000  0.000000  0.076923    0.00000000 244 t-inv F
  0.000000  0.000000  0.096154    0.00000000 245 t-inv F
  0.000000  0.000000  0.115385    0.00000000 246 t-inv F
  0.000000  0.000000  0.134615    0.00000000 247 t-inv F
  0.000000  0.000000  0.153846    0.00000000 248 t-inv F
  0.000000  0.000000  0.173077    0.00000000 249 t-inv F
  0.000000  0.000000  0.192308    0.00000000 250 t-inv F
  0.000000  0.000000  0.211538    0.00000000 251 t-inv F
  0.000000  0.000000  0.230769    0.00000000 252 t-inv F
  0.000000  0.000000  0.250000    0.00000000 253 t-inv F
  0.000000  0.000000  0.269231    0.00000000 254 t-inv F
  0.000000  0.000000  0.288462    0.00000000 255 t-inv F
  0.000000  0.000000  0.307692    0.00000000 256 t-inv F
  0.000000  0.000000  0.326923    0.00000000 257 t-inv F
  0.000000  0.000000  0.346154    0.00000000 258 t-inv F
  0.000000  0.000000  0.365385    0.00000000 259 t-inv F
  0.000000  0.000000  0.384615    0.00000000 260 t-inv F
  0.000000  0.000000  0.403846    0.00000000 261 t-inv F
  0.000000  0.000000  0.423077    0.00000000 262 t-inv F
  0.000000  0.000000  0.442308    0.00000000 263 t-inv F
  0.000000  0.000000  0.461538    0.00000000 264 t-inv F
  0.000000  0.000000  0.480769    0.00000000 265 t-inv F
  0.000000  0.000000  0.500000    0.00000000 266 t-inv F
  0.000000  0.000000  0.500000    0.00000000 267 t-inv F
  0.041667  0.041667  0.458333    0.00000000 268 t-inv F
  0.083333  0.083333  0.416667    0.00000000 269 t-inv F
  0.125000  0.125000  0.375000    0.00000000 270 t-inv F
  0.166667  0.166667  0.333333    0.00000000 271 t-inv F
  0.208333  0.208333  0.291667    0.00000000 272 t-inv F
  0.250000  0.250000  0.250000    0.00000000 273 t-inv F
  0.250000  0.250000  0.250000    0.00000000 274 t-inv F
  0.236111  0.263889  0.236111    0.00000000 275 t-inv F
  0.222222  0.277778  0.222222    0.00000000 276 t-inv F
  0.208333  0.291667  0.208333    0.00000000 277 t-inv F
  0.194444  0.305556  0.194444    0.00000000 278 t-inv F
  0.180556  0.319444  0.180556    0.00000000 279 t-inv F
  0.166667  0.333333  0.166667    0.00000000 280 t-inv F
  0.152778  0.347222  0.152778    0.00000000 281 t-inv F
  0.138889  0.361111  0.138889    0.00000000 282 t-inv F
  0.125000  0.375000  0.125000    0.00000000 283 t-inv F
  0.111111  0.388889  0.111111    0.00000000 284 t-inv F
  0.097222  0.402778  0.097222    0.00000000 285 t-inv F
  0.083333  0.416667  0.083333    0.00000000 286 t-inv F
  0.069444  0.430556  0.069444    0.00000000 287 t-inv F
  0.055556  0.444444  0.055556    0.00000000 288 t-inv F
  0.041667  0.458333  0.041667    0.00000000 289 t-inv F
  0.027778  0.472222  0.027778    0.00000000 290 t-inv F
  0.013889  0.486111  0.013889    0.00000000 291 t-inv F
  0.000000  0.500000  0.000000    0.00000000 292 t-inv F
  0.000000  0.500000  0.000000    0.00000000 293 t-inv F
  0.000000  0.473684  0.000000    0.00000000 294 t-inv F
  0.000000  0.447368  0.000000    0.00000000 295 t-inv F
  0.000000  0.421053  0.000000    0.00000000 296 t-inv F
  0.000000  0.394737  0.000000    0.00000000 297 t-inv F
  0.000000  0.368421  0.000000    0.00000000 298 t-inv F
  0.000000  0.342105  0.000000    0.00000000 299 t-inv F
  0.000000  0.315789  0.000000    0.00000000 300 t-inv F
  0.000000  0.289474  0.000000    0.00000000 301 t-inv F
  0.000000  0.263158  0.000000    0.00000000 302 t-inv F
  0.000000  0.236842  0.000000    0.00000000 303 t-inv F
  0.000000  0.210526  0.000000    0.00000000 304 t-inv F
  0.000000  0.184211  0.000000    0.00000000 305 t-inv F
  0.000000  0.157895  0.000000    0.00000000 306 t-inv F
  0.000000  0.131579  0.000000    0.00000000 307 t-inv F
  0.000000  0.105263  0.000000    0.00000000 308 t-inv F
  0.000000  0.078947  0.000000    0.00000000 309 t-inv F
  0.000000  0.052632  0.000000    0.00000000 310 t-inv F
  0.000000  0.026316  0.000000    0.00000000 311 t-inv F
  0.000000  0.000000  0.000000    0.00000000 312 t-inv F
  0.000000  0.000000  0.000000    0.00000000 313 t-inv F
  0.035714  0.035714 -0.035714    0.00000000 314 t-inv F
  0.071429  0.071429 -0.071429    0.00000000 315 t-inv F
  0.107143  0.107143 -0.107143    0.00000000 316 t-inv F
  0.142857  0.142857 -0.142857    0.00000000 317 t-inv F
  0.178571  0.178571 -0.178571    0.00000000 318 t-inv F
  0.214286  0.214286 -0.214286    0.00000000 319 t-inv F
  0.250000  0.250000 -0.250000    0.00000000 320 t-inv F
  0.285714  0.285714 -0.285714    0.00000000 321 t-inv F
  0.321429  0.321429 -0.321429    0.00000000 322 t-inv F
  0.357143  0.357143 -0.357143    0.00000000 323 t-inv F
  0.392857  0.392857 -0.392857    0.00000000 324 t-inv F
  0.428571  0.428571 -0.428571    0.00000000 325 t-inv F
  0.464286  0.464286 -0.464286    0.00000000 326 t-inv F
  0.500000  0.500000 -0.500000    0.00000000 327 t-inv F
  0.500000  0.500000 -0.500000    0.00000000 328 t-inv F
  0.485944  0.514056 -0.485944    0.00000000 329 t-inv F
  0.471889  0.528111 -0.471889    0.00000000 330 t-inv F
  0.457833  0.542167 -0.457833    0.00000000 331 t-inv F
  0.443778  0.556222 -0.443778    0.00000000 332 t-inv F
  0.429722  0.570278 -0.429722    0.00000000 333 t-inv F
  0.415667  0.584333 -0.415667    0.00000000 334 t-inv F
  0.401611  0.598389 -0.401611    0.00000000 335 t-inv F
  0.387556  0.612444 -0.387556    0.00000000 336 t-inv F
  0.373500  0.626500 -0.373500    0.00000000 337 t-inv F
  0.359445  0.640555 -0.359445    0.00000000 338 t-inv F
  0.345389  0.654611 -0.345389    0.00000000 339 t-inv F
  0.331334  0.668666 -0.331334    0.00000000 340 t-inv F
  0.317278  0.682722 -0.317278    0.00000000 341 t-inv F
  0.303223  0.696777 -0.303223    0.00000000 342 t-inv F
  0.289167  0.710833 -0.289167    0.00000000 343 t-inv F
 -0.289167  0.289167  0.289167    0.00000000 344 t-inv F
 -0.275397  0.275397  0.275397    0.00000000 345 t-inv F
 -0.261627  0.261627  0.261627    0.00000000 346 t-inv F
 -0.247858  0.247858  0.247858    0.00000000 347 t-inv F
 -0.234088  0.234088  0.234088    0.00000000 348 t-inv F
 -0.220318  0.220318  0.220318    0.00000000 349 t-inv F
 -0.206548  0.206548  0.206548    0.00000000 350 t-inv F
 -0.192778  0.192778  0.192778    0.00000000 351 t-inv F
 -0.179008  0.179008  0.179008    0.00000000 352 t-inv F
 -0.165238  0.165238  0.165238    0.00000000 353 t-inv F
 -0.151468  0.151468  0.151468    0.00000000 354 t-inv F
 -0.137699  0.137699  0.137699    0.00000000 355 t-inv F
 -0.123929  0.123929  0.123929    0.00000000 356 t-inv F
 -0.110159  0.110159  0.110159    0.00000000 357 t-inv F
 -0.096389  0.096389  0.096389    0.00000000 358 t-inv F
 -0.082619  0.082619  0.082619    0.00000000 359 t-inv F
 -0.068849  0.068849  0.068849    0.00000000 360 t-inv F
 -0.055079  0.055079  0.055079    0.00000000 361 t-inv F
 -0.041310  0.041310  0.041310    0.00000000 362 t-inv F
 -0.027540  0.027540  0.027540    0.00000000 363 t-inv F
 -0.013770  0.013770  0.013770    0.00000000 364 t-inv F
  0.000000  0.000000  0.000000    0.00000000 365 t-inv F
  0.000000  0.000000  0.500000    0.00000000 366 t-inv F
 -0.019584  0.019584  0.500000    0.00000000 367 t-inv F
 -0.039167  0.039167  0.500000    0.00000000 368 t-inv F
 -0.058751  0.058751  0.500000    0.00000000 369 t-inv F
 -0.078334  0.078334  0.500000    0.00000000 370 t-inv F
  0.500000  0.500000 -0.078334    0.00000000 371 t-inv F
  0.500000  0.500000 -0.097501    0.00000000 372 t-inv F
  0.500000  0.500000 -0.116667    0.00000000 373 t-inv F
  0.500000  0.500000 -0.135834    0.00000000 374 t-inv F
  0.500000  0.500000 -0.155001    0.00000000 375 t-inv F
  0.500000  0.500000 -0.174167    0.00000000 376 t-inv F
  0.500000  0.500000 -0.193334    0.00000000 377 t-inv F
  0.500000  0.500000 -0.212501    0.00000000 378 t-inv F
  0.500000  0.500000 -0.231667    0.00000000 379 t-inv F
  0.500000  0.500000 -0.250834    0.00000000 380 t-inv F
  0.500000  0.500000 -0.270000    0.00000000 381 t-inv F
  0.500000  0.500000 -0.289167    0.00000000 382 t-inv F
  0.500000  0.500000 -0.308334    0.00000000 383 t-inv F
  0.500000  0.500000 -0.327500    0.00000000 384 t-inv F
  0.500000  0.500000 -0.346667    0.00000000 385 t-inv F
  0.500000  0.500000 -0.365834    0.00000000 386 t-inv F
  0.500000  0.500000 -0.385000    0.00000000 387 t-inv F
  0.500000  0.500000 -0.404167    0.00000000 388 t-inv F
  0.500000  0.500000 -0.423333    0.00000000 389 t-inv F
  0.500000  0.500000 -0.442500    0.00000000 390 t-inv F
  0.500000  0.500000 -0.461667    0.00000000 391 t-inv F
  0.500000  0.500000 -0.480833    0.00000000 392 t-inv F
  0.500000  0.500000 -0.500000    0.00000000 393 t-inv F
 -0.111111  0.000000  0.000000    0.00051440   2 t-inv F
  0.111111  0.000000 -0.111111    0.00051440   2 t-inv F
 -0.111111  0.000000  0.111111    0.00051440   2 t-inv F
  0.000000  0.111111 -0.111111    0.00051440   2 t-inv F
  0.000000 -0.111111  0.111111    0.00051440   2 t-inv F
  0.000000  0.111111  0.000000    0.00051440   2 t-inv F
  0.000000 -0.111111  0.000000    0.00051440   2 t-inv F
 -0.222222  0.000000  0.000000    0.00051440   3 t-inv F
  0.222222  0.000000 -0.222222    0.00051440   3 t-inv F
 -0.222222  0.000000  0.222222    0.00051440   3 t-inv F
  0.000000  0.222222 -0.222222    0.00051440   3 t-inv F
  0.000000 -0.222222  0.222222    0.00051440   3 t-inv F
  0.000000  0.222222  0.000000    0.00051440   3 t-inv F
  0.000000 -0.222222  0.000000    0.00051440   3 t-inv F
 -0.333333  0.000000  0.000000    0.00102881   4 t-inv F
  0.333333  0.000000 -0.333333    0.00102881   4 t-inv F
 -0.333333  0.000000  0.333333    0.00102881   4 t-inv F
  0.000000  0.333333 -0.333333    0.00102881   4 t-inv F
  0.000000 -0.333333  0.333333    0.00102881   4 t-inv F
  0.000000  0.333333  0.000000    0.00102881   4 t-inv F
  0.000000 -0.333333  0.000000    0.00102881   4 t-inv F
 -0.444444  0.000000  0.000000    0.00051440   5 t-inv F
  0.444444  0.000000 -0.444444    0.00051440   5 t-inv F
 -0.444444  0.000000  0.444444    0.00051440   5 t-inv F
  0.000000  0.444444 -0.444444    0.00051440   5 t-inv F
  0.000000 -0.444444  0.444444    0.00051440   5 t-inv F
  0.000000  0.444444  0.000000    0.00051440   5 t-inv F
  0.000000 -0.444444  0.000000    0.00051440   5 t-inv F
 -0.111111 -0.111111  0.000000    0.00025720   6 t-inv F
  0.222222  0.000000 -0.111111    0.00025720   6 t-inv F
 -0.222222  0.000000  0.111111    0.00025720   6 t-inv F
  0.111111  0.111111 -0.222222    0.00025720   6 t-inv F
 -0.111111 -0.111111  0.222222    0.00025720   6 t-inv F
  0.000000  0.222222 -0.111111    0.00025720   6 t-inv F
  0.000000 -0.222222  0.111111    0.00025720   6 t-inv F
 -0.222222 -0.111111  0.000000    0.00051440   7 t-inv F
  0.333333  0.000000 -0.222222    0.00051440   7 t-inv F
 -0.333333  0.000000  0.222222    0.00051440   7 t-inv F
  0.111111  0.222222 -0.333333    0.00051440   7 t-inv F
 -0.111111 -0.222222  0.333333    0.00051440   7 t-inv F
  0.000000  0.333333 -0.111111    0.00051440   7 t-inv F
  0.000000 -0.333333  0.111111    0.00051440   7 t-inv F
  0.000000 -0.333333  0.222222    0.00051440   7 t-inv F
  0.000000  0.333333 -0.222222    0.00051440   7 t-inv F
 -0.222222 -0.111111  0.333333    0.00051440   7 t-inv F
  0.222222  0.111111 -0.333333    0.00051440   7 t-inv F
 -0.333333  0.000000  0.111111    0.00051440   7 t-inv F
  0.333333  0.000000 -0.111111    0.00051440   7 t-inv F
 -0.111111 -0.222222  0.000000    0.00051440   7 t-inv F
  0.111111  0.222222  0.000000    0.00051440   7 t-inv F
 -0.333333 -0.111111  0.000000    0.00051440   8 t-inv F
  0.444444  0.000000 -0.333333    0.00051440   8 t-inv F
 -0.444444  0.000000  0.333333    0.00051440   8 t-inv F
  0.111111  0.333333 -0.444444    0.00051440   8 t-inv F
 -0.111111 -0.333333  0.444444    0.00051440   8 t-inv F
  0.000000  0.444444 -0.111111    0.00051440   8 t-inv F
  0.000000 -0.444444  0.111111    0.00051440   8 t-inv F
  0.000000 -0.444444  0.333333    0.00051440   8 t-inv F
  0.000000  0.444444 -0.333333    0.00051440   8 t-inv F
 -0.333333 -0.111111  0.444444    0.00051440   8 t-inv F
  0.333333  0.111111 -0.444444    0.00051440   8 t-inv F
 -0.444444  0.000000  0.111111    0.00051440   8 t-inv F
  0.444444  0.000000 -0.111111    0.00051440   8 t-inv F
 -0.111111 -0.333333  0.000000    0.00051440   8 t-inv F
  0.111111  0.333333  0.000000    0.00051440   8 t-inv F
 -0.444444 -0.111111  0.000000    0.00025720   9 t-inv F
  0.555556  0.000000 -0.444444    0.00025720   9 t-inv F
 -0.555556  0.000000  0.444444    0.00025720   9 t-inv F
  0.111111  0.444444 -0.555556    0.00025720   9 t-inv F
 -0.111111 -0.444444  0.555556    0.00025720   9 t-inv F
  0.000000  0.555556 -0.111111    0.00025720   9 t-inv F
  0.000000 -0.555556  0.111111    0.00025720   9 t-inv F
  0.000000 -0.555556  0.444444    0.00025720   9 t-inv F
  0.000000  0.555556 -0.444444    0.00025720   9 t-inv F
 -0.444444 -0.111111  0.555556    0.00025720   9 t-inv F
  0.444444  0.111111 -0.555556    0.00025720   9 t-inv F
 -0.555556  0.000000  0.111111    0.00025720   9 t-inv F
  0.555556  0.000000 -0.111111    0.00025720   9 t-inv F
 -0.111111 -0.444444  0.000000    0.00025720   9 t-inv F
  0.111111  0.444444  0.000000    0.00025720   9 t-inv F
  0.444444 -0.111111  0.000000    0.00051440  10 t-inv F
 -0.333333  0.000000  0.444444    0.00051440  10 t-inv F
  0.333333  0.000000 -0.444444    0.00051440  10 t-inv F
  0.111111 -0.444444  0.333333    0.00051440  10 t-inv F
 -0.111111  0.444444 -0.333333    0.00051440  10 t-inv F
  0.000000 -0.333333 -0.111111    0.00051440  10 t-inv F
  0.000000  0.333333  0.111111    0.00051440  10 t-inv F
  0.000000  0.333333 -0.444444    0.00051440  10 t-inv F
  0.000000 -0.333333  0.444444    0.00051440  10 t-inv F
  0.444444 -0.111111 -0.333333    0.00051440  10 t-inv F
 -0.444444  0.111111  0.333333    0.00051440  10 t-inv F
  0.333333  0.000000  0.111111    0.00051440  10 t-inv F
 -0.333333  0.000000 -0.111111    0.00051440  10 t-inv F
 -0.111111  0.444444  0.000000    0.00051440  10 t-inv F
  0.111111 -0.444444  0.000000    0.00051440  10 t-inv F
  0.333333 -0.111111  0.000000    0.00051440  11 t-inv F
 -0.222222  0.000000  0.333333    0.00051440  11 t-inv F
  0.222222  0.000000 -0.333333    0.00051440  11 t-inv F
  0.111111 -0.333333  0.222222    0.00051440  11 t-inv F
 -0.111111  0.333333 -0.222222    0.00051440  11 t-inv F
  0.000000 -0.222222 -0.111111    0.00051440  11 t-inv F
  0.000000  0.222222  0.111111    0.00051440  11 t-inv F
  0.000000  0.222222 -0.333333    0.00051440  11 t-inv F
  0.000000 -0.222222  0.333333    0.00051440  11 t-inv F
  0.333333 -0.111111 -0.222222    0.00051440  11 t-inv F
 -0.333333  0.111111  0.222222    0.00051440  11 t-inv F
  0.222222  0.000000  0.111111    0.00051440  11 t-inv F
 -0.222222  0.000000 -0.111111    0.00051440  11 t-inv F
 -0.111111  0.333333  0.000000    0.00051440  11 t-inv F
  0.111111 -0.333333  0.000000    0.00051440  11 t-inv F
  0.222222 -0.111111  0.000000    0.00025720  12 t-inv F
 -0.111111  0.000000  0.222222    0.00025720  12 t-inv F
  0.111111  0.000000 -0.222222    0.00025720  12 t-inv F
  0.111111 -0.222222  0.111111    0.00025720  12 t-inv F
 -0.111111  0.222222 -0.111111    0.00025720  12 t-inv F
  0.000000 -0.111111 -0.111111    0.00025720  12 t-inv F
  0.000000  0.111111  0.111111    0.00025720  12 t-inv F
  0.000000  0.111111 -0.222222    0.00025720  12 t-inv F
  0.000000 -0.111111  0.222222    0.00025720  12 t-inv F
  0.222222 -0.111111 -0.111111    0.00025720  12 t-inv F
 -0.222222  0.111111  0.111111    0.00025720  12 t-inv F
  0.111111  0.000000  0.111111    0.00025720  12 t-inv F
 -0.111111  0.000000 -0.111111    0.00025720  12 t-inv F
 -0.111111  0.222222  0.000000    0.00025720  12 t-inv F
  0.111111 -0.222222  0.000000    0.00025720  12 t-inv F
  0.111111 -0.111111  0.000000    0.00051440  13 t-inv F
  0.000000  0.000000  0.111111    0.00051440  13 t-inv F
  0.000000  0.000000 -0.111111    0.00051440  13 t-inv F
 -0.222222 -0.222222  0.000000    0.00025720  14 t-inv F
  0.444444  0.000000 -0.222222    0.00025720  14 t-inv F
 -0.444444  0.000000  0.222222    0.00025720  14 t-inv F
  0.222222  0.222222 -0.444444    0.00025720  14 t-inv F
 -0.222222 -0.222222  0.444444    0.00025720  14 t-inv F
  0.000000  0.444444 -0.222222    0.00025720  14 t-inv F
  0.000000 -0.444444  0.222222    0.00025720  14 t-inv F
 -0.333333 -0.222222  0.000000    0.00051440  15 t-inv F
  0.555556  0.000000 -0.333333    0.00051440  15 t-inv F
 -0.555556  0.000000  0.333333    0.00051440  15 t-inv F
  0.222222  0.333333 -0.555556    0.00051440  15 t-inv F
 -0.222222 -0.333333  0.555556    0.00051440  15 t-inv F
  0.000000  0.555556 -0.222222    0.00051440  15 t-inv F
  0.000000 -0.555556  0.222222    0.00051440  15 t-inv F
  0.000000 -0.555556  0.333333    0.00051440  15 t-inv F
  0.000000  0.555556 -0.333333    0.00051440  15 t-inv F
 -0.333333 -0.222222  0.555556    0.00051440  15 t-inv F
  0.333333  0.222222 -0.555556    0.00051440  15 t-inv F
 -0.555556  0.000000  0.222222    0.00051440  15 t-inv F
  0.555556  0.000000 -0.222222    0.00051440  15 t-inv F
 -0.222222 -0.333333  0.000000    0.00051440  15 t-inv F
  0.222222  0.333333  0.000000    0.00051440  15 t-inv F
 -0.444444 -0.222222  0.000000    0.00051440  16 t-inv F
  0.666667  0.000000 -0.444444    0.00051440  16 t-inv F
 -0.666667  0.000000  0.444444    0.00051440  16 t-inv F
  0.222222  0.444444 -0.666667    0.00051440  16 t-inv F
 -0.222222 -0.444444  0.666667    0.00051440  16 t-inv F
  0.000000  0.666667 -0.222222    0.00051440  16 t-inv F
  0.000000 -0.666667  0.222222    0.00051440  16 t-inv F
  0.000000 -0.666667  0.444444    0.00051440  16 t-inv F
  0.000000  0.666667 -0.444444    0.00051440  16 t-inv F
 -0.444444 -0.222222  0.666667    0.00051440  16 t-inv F
  0.444444  0.222222 -0.666667    0.00051440  16 t-inv F
 -0.666667  0.000000  0.222222    0.00051440  16 t-inv F
  0.666667  0.000000 -0.222222    0.00051440  16 t-inv F
 -0.222222 -0.444444  0.000000    0.00051440  16 t-inv F
  0.222222  0.444444  0.000000    0.00051440  16 t-inv F
  0.444444 -0.222222  0.000000    0.00025720  17 t-inv F
 -0.222222  0.000000  0.444444    0.00025720  17 t-inv F
  0.222222  0.000000 -0.444444    0.00025720  17 t-inv F
  0.222222 -0.444444  0.222222    0.00025720  17 t-inv F
 -0.222222  0.444444 -0.222222    0.00025720  17 t-inv F
  0.000000 -0.222222 -0.222222    0.00025720  17 t-inv F
  0.000000  0.222222  0.222222    0.00025720  17 t-inv F
  0.000000  0.222222 -0.444444    0.00025720  17 t-inv F
  0.000000 -0.222222  0.444444    0.00025720  17 t-inv F
  0.444444 -0.222222 -0.222222    0.00025720  17 t-inv F
 -0.444444  0.222222  0.222222    0.00025720  17 t-inv F
  0.222222  0.000000  0.222222    0.00025720  17 t-inv F
 -0.222222  0.000000 -0.222222    0.00025720  17 t-inv F
 -0.222222  0.444444  0.000000    0.00025720  17 t-inv F
  0.222222 -0.444444  0.000000    0.00025720  17 t-inv F
  0.333333 -0.222222  0.000000    0.00051440  18 t-inv F
 -0.111111  0.000000  0.333333    0.00051440  18 t-inv F
  0.111111  0.000000 -0.333333    0.00051440  18 t-inv F
  0.222222 -0.333333  0.111111    0.00051440  18 t-inv F
 -0.222222  0.333333 -0.111111    0.00051440  18 t-inv F
  0.000000 -0.111111 -0.222222    0.00051440  18 t-inv F
  0.000000  0.111111  0.222222    0.00051440  18 t-inv F
  0.000000  0.111111 -0.333333    0.00051440  18 t-inv F
  0.000000 -0.111111  0.333333    0.00051440  18 t-inv F
  0.333333 -0.222222 -0.111111    0.00051440  18 t-inv F
 -0.333333  0.222222  0.111111    0.00051440  18 t-inv F
  0.111111  0.000000  0.222222    0.00051440  18 t-inv F
 -0.111111  0.000000 -0.222222    0.00051440  18 t-inv F
 -0.222222  0.333333  0.000000    0.00051440  18 t-inv F
  0.222222 -0.333333  0.000000    0.00051440  18 t-inv F
  0.222222 -0.222222  0.000000    0.00051440  19 t-inv F
  0.000000  0.000000  0.222222    0.00051440  19 t-inv F
  0.000000  0.000000 -0.222222    0.00051440  19 t-inv F
 -0.333333 -0.333333  0.000000    0.00102881  20 t-inv F
  0.666667  0.000000 -0.333333    0.00102881  20 t-inv F
 -0.666667  0.000000  0.333333    0.00102881  20 t-inv F
  0.333333  0.333333 -0.666667    0.00102881  20 t-inv F
 -0.333333 -0.333333  0.666667    0.00102881  20 t-inv F
  0.000000  0.666667 -0.333333    0.00102881  20 t-inv F
  0.000000 -0.666667  0.333333    0.00102881  20 t-inv F
 -0.444444 -0.333333  0.000000    0.00051440  21 t-inv F
  0.777778  0.000000 -0.444444    0.00051440  21 t-inv F
 -0.777778  0.000000  0.444444    0.00051440  21 t-inv F
  0.333333  0.444444 -0.777778    0.00051440  21 t-inv F
 -0.333333 -0.444444  0.777778    0.00051440  21 t-inv F
  0.000000  0.777778 -0.333333    0.00051440  21 t-inv F
  0.000000 -0.777778  0.333333    0.00051440  21 t-inv F
  0.000000 -0.777778  0.444444    0.00051440  21 t-inv F
  0.000000  0.777778 -0.444444    0.00051440  21 t-inv F
 -0.444444 -0.333333  0.777778    0.00051440  21 t-inv F
  0.444444  0.333333 -0.777778    0.00051440  21 t-inv F
 -0.777778  0.000000  0.333333    0.00051440  21 t-inv F
  0.777778  0.000000 -0.333333    0.00051440  21 t-inv F
 -0.333333 -0.444444  0.000000    0.00051440  21 t-inv F
  0.333333  0.444444  0.000000    0.00051440  21 t-inv F
  0.444444 -0.333333  0.000000    0.00051440  22 t-inv F
 -0.111111  0.000000  0.444444    0.00051440  22 t-inv F
  0.111111  0.000000 -0.444444    0.00051440  22 t-inv F
  0.333333 -0.444444  0.111111    0.00051440  22 t-inv F
 -0.333333  0.444444 -0.111111    0.00051440  22 t-inv F
  0.000000 -0.111111 -0.333333    0.00051440  22 t-inv F
  0.000000  0.111111  0.333333    0.00051440  22 t-inv F
  0.000000  0.111111 -0.444444    0.00051440  22 t-inv F
  0.000000 -0.111111  0.444444    0.00051440  22 t-inv F
  0.444444 -0.333333 -0.111111    0.00051440  22 t-inv F
 -0.444444  0.333333  0.111111    0.00051440  22 t-inv F
  0.111111  0.000000  0.333333    0.00051440  22 t-inv F
 -0.111111  0.000000 -0.333333    0.00051440  22 t-inv F
 -0.333333  0.444444  0.000000    0.00051440  22 t-inv F
  0.333333 -0.444444  0.000000    0.00051440  22 t-inv F
  0.333333 -0.333333  0.000000    0.00102881  23 t-inv F
  0.000000  0.000000  0.333333    0.00102881  23 t-inv F
  0.000000  0.000000 -0.333333    0.00102881  23 t-inv F
 -0.444444 -0.444444  0.000000    0.00025720  24 t-inv F
  0.888889  0.000000 -0.444444    0.00025720  24 t-inv F
 -0.888889  0.000000  0.444444    0.00025720  24 t-inv F
  0.444444  0.444444 -0.888889    0.00025720  24 t-inv F
 -0.444444 -0.444444  0.888889    0.00025720  24 t-inv F
  0.000000  0.888889 -0.444444    0.00025720  24 t-inv F
  0.000000 -0.888889  0.444444    0.00025720  24 t-inv F
  0.444444 -0.444444  0.000000    0.00051440  25 t-inv F
  0.000000  0.000000  0.444444    0.00051440  25 t-inv F
  0.000000  0.000000 -0.444444    0.00051440  25 t-inv F
  0.000000  0.000000 -0.083333    0.00051440  26 t-inv F
  0.083333 -0.083333  0.000000    0.00051440  26 t-inv F
 -0.083333  0.083333  0.000000    0.00051440  26 t-inv F
 -0.111111  0.000000 -0.083333    0.00025720  27 t-inv F
  0.194444 -0.083333 -0.111111    0.00025720  27 t-inv F
 -0.194444  0.083333  0.111111    0.00025720  27 t-inv F
  0.000000  0.111111 -0.194444    0.00025720  27 t-inv F
  0.000000 -0.111111  0.194444    0.00025720  27 t-inv F
 -0.083333  0.194444  0.000000    0.00025720  27 t-inv F
  0.083333 -0.194444  0.000000    0.00025720  27 t-inv F
  0.083333 -0.194444  0.111111    0.00025720  27 t-inv F
 -0.083333  0.194444 -0.111111    0.00025720  27 t-inv F
 -0.111111  0.000000  0.194444    0.00025720  27 t-inv F
  0.111111  0.000000 -0.194444    0.00025720  27 t-inv F
 -0.194444  0.083333  0.000000    0.00025720  27 t-inv F
  0.194444 -0.083333  0.000000    0.00025720  27 t-inv F
  0.000000 -0.111111 -0.083333    0.00025720  27 t-inv F
  0.000000  0.111111  0.083333    0.00025720  27 t-inv F
 -0.222222  0.000000 -0.083333    0.00025720  28 t-inv F
  0.305556 -0.083333 -0.222222    0.00025720  28 t-inv F
 -0.305556  0.083333  0.222222    0.00025720  28 t-inv F
  0.000000  0.222222 -0.305556    0.00025720  28 t-inv F
  0.000000 -0.222222  0.305556    0.00025720  28 t-inv F
 -0.083333  0.305556  0.000000    0.00025720  28 t-inv F
  0.083333 -0.305556  0.000000    0.00025720  28 t-inv F
  0.083333 -0.305556  0.222222    0.00025720  28 t-inv F
 -0.083333  0.305556 -0.222222    0.00025720  28 t-inv F
 -0.222222  0.000000  0.305556    0.00025720  28 t-inv F
  0.222222  0.000000 -0.305556    0.00025720  28 t-inv F
 -0.305556  0.083333  0.000000    0.00025720  28 t-inv F
  0.305556 -0.083333  0.000000    0.00025720  28 t-inv F
  0.000000 -0.222222 -0.083333    0.00025720  28 t-inv F
  0.000000  0.222222  0.083333    0.00025720  28 t-inv F
 -0.333333  0.000000 -0.083333    0.00051440  29 t-inv F
  0.416667 -0.083333 -0.333333    0.00051440  29 t-inv F
 -0.416667  0.083333  0.333333    0.00051440  29 t-inv F
  0.000000  0.333333 -0.416667    0.00051440  29 t-inv F
  0.000000 -0.333333  0.416667    0.00051440  29 t-inv F
 -0.083333  0.416667  0.000000    0.00051440  29 t-inv F
  0.083333 -0.416667  0.000000    0.00051440  29 t-inv F
  0.083333 -0.416667  0.333333    0.00051440  29 t-inv F
 -0.083333  0.416667 -0.333333    0.00051440  29 t-inv F
 -0.333333  0.000000  0.416667    0.00051440  29 t-inv F
  0.333333  0.000000 -0.416667    0.00051440  29 t-inv F
 -0.416667  0.083333  0.000000    0.00051440  29 t-inv F
  0.416667 -0.083333  0.000000    0.00051440  29 t-inv F
  0.000000 -0.333333 -0.083333    0.00051440  29 t-inv F
  0.000000  0.333333  0.083333    0.00051440  29 t-inv F
 -0.444444  0.000000 -0.083333    0.00025720  30 t-inv F
  0.527778 -0.083333 -0.444444    0.00025720  30 t-inv F
 -0.527778  0.083333  0.444444    0.00025720  30 t-inv F
  0.000000  0.444444 -0.527778    0.00025720  30 t-inv F
  0.000000 -0.444444  0.527778    0.00025720  30 t-inv F
 -0.083333  0.527778  0.000000    0.00025720  30 t-inv F
  0.083333 -0.527778  0.000000    0.00025720  30 t-inv F
  0.083333 -0.527778  0.444444    0.00025720  30 t-inv F
 -0.083333  0.527778 -0.444444    0.00025720  30 t-inv F
 -0.444444  0.000000  0.527778    0.00025720  30 t-inv F
  0.444444  0.000000 -0.527778    0.00025720  30 t-inv F
 -0.527778  0.083333  0.000000    0.00025720  30 t-inv F
  0.527778 -0.083333  0.000000    0.00025720  30 t-inv F
  0.000000 -0.444444 -0.083333    0.00025720  30 t-inv F
  0.000000  0.444444  0.083333    0.00025720  30 t-inv F
  0.444444  0.000000 -0.083333    0.00025720  31 t-inv F
 -0.361111 -0.083333  0.444444    0.00025720  31 t-inv F
  0.361111  0.083333 -0.444444    0.00025720  31 t-inv F
  0.000000 -0.444444  0.361111    0.00025720  31 t-inv F
  0.000000  0.444444 -0.361111    0.00025720  31 t-inv F
 -0.083333 -0.361111  0.000000    0.00025720  31 t-inv F
  0.083333  0.361111  0.000000    0.00025720  31 t-inv F
  0.083333  0.361111 -0.444444    0.00025720  31 t-inv F
 -0.083333 -0.361111  0.444444    0.00025720  31 t-inv F
  0.444444  0.000000 -0.361111    0.00025720  31 t-inv F
 -0.444444  0.000000  0.361111    0.00025720  31 t-inv F
  0.361111  0.083333  0.000000    0.00025720  31 t-inv F
 -0.361111 -0.083333  0.000000    0.00025720  31 t-inv F
  0.000000  0.444444 -0.083333    0.00025720  31 t-inv F
  0.000000 -0.444444  0.083333    0.00025720  31 t-inv F
  0.333333  0.000000 -0.083333    0.00051440  32 t-inv F
 -0.250000 -0.083333  0.333333    0.00051440  32 t-inv F
  0.250000  0.083333 -0.333333    0.00051440  32 t-inv F
  0.000000 -0.333333  0.250000    0.00051440  32 t-inv F
  0.000000  0.333333 -0.250000    0.00051440  32 t-inv F
 -0.083333 -0.250000  0.000000    0.00051440  32 t-inv F
  0.083333  0.250000  0.000000    0.00051440  32 t-inv F
  0.083333  0.250000 -0.333333    0.00051440  32 t-inv F
 -0.083333 -0.250000  0.333333    0.00051440  32 t-inv F
  0.333333  0.000000 -0.250000    0.00051440  32 t-inv F
 -0.333333  0.000000  0.250000    0.00051440  32 t-inv F
  0.250000  0.083333  0.000000    0.00051440  32 t-inv F
 -0.250000 -0.083333  0.000000    0.00051440  32 t-inv F
  0.000000  0.333333 -0.083333    0.00051440  32 t-inv F
  0.000000 -0.333333  0.083333    0.00051440  32 t-inv F
  0.222222  0.000000 -0.083333    0.00025720  33 t-inv F
 -0.138889 -0.083333  0.222222    0.00025720  33 t-inv F
  0.138889  0.083333 -0.222222    0.00025720  33 t-inv F
  0.000000 -0.222222  0.138889    0.00025720  33 t-inv F
  0.000000  0.222222 -0.138889    0.00025720  33 t-inv F
 -0.083333 -0.138889  0.000000    0.00025720  33 t-inv F
  0.083333  0.138889  0.000000    0.00025720  33 t-inv F
  0.083333  0.138889 -0.222222    0.00025720  33 t-inv F
 -0.083333 -0.138889  0.222222    0.00025720  33 t-inv F
  0.222222  0.000000 -0.138889    0.00025720  33 t-inv F
 -0.222222  0.000000  0.138889    0.00025720  33 t-inv F
  0.138889  0.083333  0.000000    0.00025720  33 t-inv F
 -0.138889 -0.083333  0.000000    0.00025720  33 t-inv F
  0.000000  0.222222 -0.083333    0.00025720  33 t-inv F
  0.000000 -0.222222  0.083333    0.00025720  33 t-inv F
  0.111111  0.000000 -0.083333    0.00025720  34 t-inv F
 -0.027778 -0.083333  0.111111    0.00025720  34 t-inv F
  0.027778  0.083333 -0.111111    0.00025720  34 t-inv F
  0.000000 -0.111111  0.027778    0.00025720  34 t-inv F
  0.000000  0.111111 -0.027778    0.00025720  34 t-inv F
 -0.083333 -0.027778  0.000000    0.00025720  34 t-inv F
  0.083333  0.027778  0.000000    0.00025720  34 t-inv F
  0.083333  0.027778 -0.111111    0.00025720  34 t-inv F
 -0.083333 -0.027778  0.111111    0.00025720  34 t-inv F
  0.111111  0.000000 -0.027778    0.00025720  34 t-inv F
 -0.111111  0.000000  0.027778    0.00025720  34 t-inv F
  0.027778  0.083333  0.000000    0.00025720  34 t-inv F
 -0.027778 -0.083333  0.000000    0.00025720  34 t-inv F
  0.000000  0.111111 -0.083333    0.00025720  34 t-inv F
  0.000000 -0.111111  0.083333    0.00025720  34 t-inv F
 -0.111111 -0.111111 -0.083333    0.00025720  35 t-inv F
  0.305556 -0.083333 -0.111111    0.00025720  35 t-inv F
 -0.305556  0.083333  0.111111    0.00025720  35 t-inv F
  0.111111  0.111111 -0.305556    0.00025720  35 t-inv F
 -0.111111 -0.111111  0.305556    0.00025720  35 t-inv F
 -0.083333  0.305556 -0.111111    0.00025720  35 t-inv F
  0.083333 -0.305556  0.111111    0.00025720  35 t-inv F
 -0.222222 -0.111111 -0.083333    0.00051440  36 t-inv F
  0.416667 -0.083333 -0.222222    0.00051440  36 t-inv F
 -0.416667  0.083333  0.222222    0.00051440  36 t-inv F
  0.111111  0.222222 -0.416667    0.00051440  36 t-inv F
 -0.111111 -0.222222  0.416667    0.00051440  36 t-inv F
 -0.083333  0.416667 -0.111111    0.00051440  36 t-inv F
  0.083333 -0.416667  0.111111    0.00051440  36 t-inv F
  0.083333 -0.416667  0.222222    0.00051440  36 t-inv F
 -0.083333  0.416667 -0.222222    0.00051440  36 t-inv F
 -0.222222 -0.111111  0.416667    0.00051440  36 t-inv F
  0.222222  0.111111 -0.416667    0.00051440  36 t-inv F
 -0.416667  0.083333  0.111111    0.00051440  36 t-inv F
  0.416667 -0.083333 -0.111111    0.00051440  36 t-inv F
 -0.111111 -0.222222 -0.083333    0.00051440  36 t-inv F
  0.111111  0.222222  0.083333    0.00051440  36 t-inv F
 -0.333333 -0.111111 -0.083333    0.00025720  37 t-inv F
  0.527778 -0.083333 -0.333333    0.00025720  37 t-inv F
 -0.527778  0.083333  0.333333    0.00025720  37 t-inv F
  0.111111  0.333333 -0.527778    0.00025720  37 t-inv F
 -0.111111 -0.333333  0.527778    0.00025720  37 t-inv F
 -0.083333  0.527778 -0.111111    0.00025720  37 t-inv F
  0.083333 -0.527778  0.111111    0.00025720  37 t-inv F
  0.083333 -0.527778  0.333333    0.00025720  37 t-inv F
 -0.083333  0.527778 -0.333333    0.00025720  37 t-inv F
 -0.333333 -0.111111  0.527778    0.00025720  37 t-inv F
  0.333333  0.111111 -0.527778    0.00025720  37 t-inv F
 -0.527778  0.083333  0.111111    0.00025720  37 t-inv F
  0.527778 -0.083333 -0.111111    0.00025720  37 t-inv F
 -0.111111 -0.333333 -0.083333    0.00025720  37 t-inv F
  0.111111  0.333333  0.083333    0.00025720  37 t-inv F
 -0.444444 -0.111111 -0.083333    0.00025720  38 t-inv F
  0.638889 -0.083333 -0.444444    0.00025720  38 t-inv F
 -0.638889  0.083333  0.444444    0.00025720  38 t-inv F
  0.111111  0.444444 -0.638889    0.00025720  38 t-inv F
 -0.111111 -0.444444  0.638889    0.00025720  38 t-inv F
 -0.083333  0.638889 -0.111111    0.00025720  38 t-inv F
  0.083333 -0.638889  0.111111    0.00025720  38 t-inv F
  0.083333 -0.638889  0.444444    0.00025720  38 t-inv F
 -0.083333  0.638889 -0.444444    0.00025720  38 t-inv F
 -0.444444 -0.111111  0.638889    0.00025720  38 t-inv F
  0.444444  0.111111 -0.638889    0.00025720  38 t-inv F
 -0.638889  0.083333  0.111111    0.00025720  38 t-inv F
  0.638889 -0.083333 -0.111111    0.00025720  38 t-inv F
 -0.111111 -0.444444 -0.083333    0.00025720  38 t-inv F
  0.111111  0.444444  0.083333    0.00025720  38 t-inv F
  0.444444 -0.111111 -0.083333    0.00051440  39 t-inv F
 -0.250000 -0.083333  0.444444    0.00051440  39 t-inv F
  0.250000  0.083333 -0.444444    0.00051440  39 t-inv F
  0.111111 -0.444444  0.250000    0.00051440  39 t-inv F
 -0.111111  0.444444 -0.250000    0.00051440  39 t-inv F
 -0.083333 -0.250000 -0.111111    0.00051440  39 t-inv F
  0.083333  0.250000  0.111111    0.00051440  39 t-inv F
  0.083333  0.250000 -0.444444    0.00051440  39 t-inv F
 -0.083333 -0.250000  0.444444    0.00051440  39 t-inv F
  0.444444 -0.111111 -0.250000    0.00051440  39 t-inv F
 -0.444444  0.111111  0.250000    0.00051440  39 t-inv F
  0.250000  0.083333  0.111111    0.00051440  39 t-inv F
 -0.250000 -0.083333 -0.111111    0.00051440  39 t-inv F
 -0.111111  0.444444 -0.083333    0.00051440  39 t-inv F
  0.111111 -0.444444  0.083333    0.00051440  39 t-inv F
  0.333333 -0.111111 -0.083333    0.00025720  40 t-inv F
 -0.138889 -0.083333  0.333333    0.00025720  40 t-inv F
  0.138889  0.083333 -0.333333    0.00025720  40 t-inv F
  0.111111 -0.333333  0.138889    0.00025720  40 t-inv F
 -0.111111  0.333333 -0.138889    0.00025720  40 t-inv F
 -0.083333 -0.138889 -0.111111    0.00025720  40 t-inv F
  0.083333  0.138889  0.111111    0.00025720  40 t-inv F
  0.083333  0.138889 -0.333333    0.00025720  40 t-inv F
 -0.083333 -0.138889  0.333333    0.00025720  40 t-inv F
  0.333333 -0.111111 -0.138889    0.00025720  40 t-inv F
 -0.333333  0.111111  0.138889    0.00025720  40 t-inv F
  0.138889  0.083333  0.111111    0.00025720  40 t-inv F
 -0.138889 -0.083333 -0.111111    0.00025720  40 t-inv F
 -0.111111  0.333333 -0.083333    0.00025720  40 t-inv F
  0.111111 -0.333333  0.083333    0.00025720  40 t-inv F
  0.222222 -0.111111 -0.083333    0.00025720  41 t-inv F
 -0.027778 -0.083333  0.222222    0.00025720  41 t-inv F
  0.027778  0.083333 -0.222222    0.00025720  41 t-inv F
  0.111111 -0.222222  0.027778    0.00025720  41 t-inv F
 -0.111111  0.222222 -0.027778    0.00025720  41 t-inv F
 -0.083333 -0.027778 -0.111111    0.00025720  41 t-inv F
  0.083333  0.027778  0.111111    0.00025720  41 t-inv F
  0.083333  0.027778 -0.222222    0.00025720  41 t-inv F
 -0.083333 -0.027778  0.222222    0.00025720  41 t-inv F
  0.222222 -0.111111 -0.027778    0.00025720  41 t-inv F
 -0.222222  0.111111  0.027778    0.00025720  41 t-inv F
  0.027778  0.083333  0.111111    0.00025720  41 t-inv F
 -0.027778 -0.083333 -0.111111    0.00025720  41 t-inv F
 -0.111111  0.222222 -0.083333    0.00025720  41 t-inv F
  0.111111 -0.222222  0.083333    0.00025720  41 t-inv F
  0.111111 -0.111111 -0.083333    0.00051440  42 t-inv F
  0.083333 -0.083333  0.111111    0.00051440  42 t-inv F
 -0.083333  0.083333 -0.111111    0.00051440  42 t-inv F
  0.083333 -0.083333 -0.111111    0.00051440  42 t-inv F
 -0.083333  0.083333  0.111111    0.00051440  42 t-inv F
  0.111111 -0.111111  0.083333    0.00051440  42 t-inv F
 -0.111111  0.111111 -0.083333    0.00051440  42 t-inv F
 -0.222222 -0.222222 -0.083333    0.00025720  43 t-inv F
  0.527778 -0.083333 -0.222222    0.00025720  43 t-inv F
 -0.527778  0.083333  0.222222    0.00025720  43 t-inv F
  0.222222  0.222222 -0.527778    0.00025720  43 t-inv F
 -0.222222 -0.222222  0.527778    0.00025720  43 t-inv F
 -0.083333  0.527778 -0.222222    0.00025720  43 t-inv F
  0.083333 -0.527778  0.222222    0.00025720  43 t-inv F
 -0.333333 -0.222222 -0.083333    0.00025720  44 t-inv F
  0.638889 -0.083333 -0.333333    0.00025720  44 t-inv F
 -0.638889  0.083333  0.333333    0.00025720  44 t-inv F
  0.222222  0.333333 -0.638889    0.00025720  44 t-inv F
 -0.222222 -0.333333  0.638889    0.00025720  44 t-inv F
 -0.083333  0.638889 -0.222222    0.00025720  44 t-inv F
  0.083333 -0.638889  0.222222    0.00025720  44 t-inv F
  0.083333 -0.638889  0.333333    0.00025720  44 t-inv F
 -0.083333  0.638889 -0.333333    0.00025720  44 t-inv F
 -0.333333 -0.222222  0.638889    0.00025720  44 t-inv F
  0.333333  0.222222 -0.638889    0.00025720  44 t-inv F
 -0.638889  0.083333  0.222222    0.00025720  44 t-inv F
  0.638889 -0.083333 -0.222222    0.00025720  44 t-inv F
 -0.222222 -0.333333 -0.083333    0.00025720  44 t-inv F
  0.222222  0.333333  0.083333    0.00025720  44 t-inv F
 -0.444444 -0.222222 -0.083333    0.00051440  45 t-inv F
  0.750000 -0.083333 -0.444444    0.00051440  45 t-inv F
 -0.750000  0.083333  0.444444    0.00051440  45 t-inv F
  0.222222  0.444444 -0.750000    0.00051440  45 t-inv F
 -0.222222 -0.444444  0.750000    0.00051440  45 t-inv F
 -0.083333  0.750000 -0.222222    0.00051440  45 t-inv F
  0.083333 -0.750000  0.222222    0.00051440  45 t-inv F
  0.083333 -0.750000  0.444444    0.00051440  45 t-inv F
 -0.083333  0.750000 -0.444444    0.00051440  45 t-inv F
 -0.444444 -0.222222  0.750000    0.00051440  45 t-inv F
  0.444444  0.222222 -0.750000    0.00051440  45 t-inv F
 -0.750000  0.083333  0.222222    0.00051440  45 t-inv F
  0.750000 -0.083333 -0.222222    0.00051440  45 t-inv F
 -0.222222 -0.444444 -0.083333    0.00051440  45 t-inv F
  0.222222  0.444444  0.083333    0.00051440  45 t-inv F
  0.444444 -0.222222 -0.083333    0.00025720  46 t-inv F
 -0.138889 -0.083333  0.444444    0.00025720  46 t-inv F
  0.138889  0.083333 -0.444444    0.00025720  46 t-inv F
  0.222222 -0.444444  0.138889    0.00025720  46 t-inv F
 -0.222222  0.444444 -0.138889    0.00025720  46 t-inv F
 -0.083333 -0.138889 -0.222222    0.00025720  46 t-inv F
  0.083333  0.138889  0.222222    0.00025720  46 t-inv F
  0.083333  0.138889 -0.444444    0.00025720  46 t-inv F
 -0.083333 -0.138889  0.444444    0.00025720  46 t-inv F
  0.444444 -0.222222 -0.138889    0.00025720  46 t-inv F
 -0.444444  0.222222  0.138889    0.00025720  46 t-inv F
  0.138889  0.083333  0.222222    0.00025720  46 t-inv F
 -0.138889 -0.083333 -0.222222    0.00025720  46 t-inv F
 -0.222222  0.444444 -0.083333    0.00025720  46 t-inv F
  0.222222 -0.444444  0.083333    0.00025720  46 t-inv F
  0.333333 -0.222222 -0.083333    0.00025720  47 t-inv F
 -0.027778 -0.083333  0.333333    0.00025720  47 t-inv F
  0.027778  0.083333 -0.333333    0.00025720  47 t-inv F
  0.222222 -0.333333  0.027778    0.00025720  47 t-inv F
 -0.222222  0.333333 -0.027778    0.00025720  47 t-inv F
 -0.083333 -0.027778 -0.222222    0.00025720  47 t-inv F
  0.083333  0.027778  0.222222    0.00025720  47 t-inv F
  0.083333  0.027778 -0.333333    0.00025720  47 t-inv F
 -0.083333 -0.027778  0.333333    0.00025720  47 t-inv F
  0.333333 -0.222222 -0.027778    0.00025720  47 t-inv F
 -0.333333  0.222222  0.027778    0.00025720  47 t-inv F
  0.027778  0.083333  0.222222    0.00025720  47 t-inv F
 -0.027778 -0.083333 -0.222222    0.00025720  47 t-inv F
 -0.222222  0.333333 -0.083333    0.00025720  47 t-inv F
  0.222222 -0.333333  0.083333    0.00025720  47 t-inv F
  0.222222 -0.222222 -0.083333    0.00051440  48 t-inv F
  0.083333 -0.083333  0.222222    0.00051440  48 t-inv F
 -0.083333  0.083333 -0.222222    0.00051440  48 t-inv F
  0.083333 -0.083333 -0.222222    0.00051440  48 t-inv F
 -0.083333  0.083333  0.222222    0.00051440  48 t-inv F
  0.222222 -0.222222  0.083333    0.00051440  48 t-inv F
 -0.222222  0.222222 -0.083333    0.00051440  48 t-inv F
  0.111111 -0.222222 -0.083333    0.00025720  49 t-inv F
  0.194444 -0.083333  0.111111    0.00025720  49 t-inv F
 -0.194444  0.083333 -0.111111    0.00025720  49 t-inv F
  0.222222 -0.111111 -0.194444    0.00025720  49 t-inv F
 -0.222222  0.111111  0.194444    0.00025720  49 t-inv F
 -0.083333  0.194444 -0.222222    0.00025720  49 t-inv F
  0.083333 -0.194444  0.222222    0.00025720  49 t-inv F
  0.083333 -0.194444 -0.111111    0.00025720  49 t-inv F
 -0.083333  0.194444  0.111111    0.00025720  49 t-inv F
  0.111111 -0.222222  0.194444    0.00025720  49 t-inv F
 -0.111111  0.222222 -0.194444    0.00025720  49 t-inv F
 -0.194444  0.083333  0.222222    0.00025720  49 t-inv F
  0.194444 -0.083333 -0.222222    0.00025720  49 t-inv F
 -0.222222  0.111111 -0.083333    0.00025720  49 t-inv F
  0.222222 -0.111111  0.083333    0.00025720  49 t-inv F
 -0.333333 -0.333333 -0.083333    0.00051440  50 t-inv F
  0.750000 -0.083333 -0.333333    0.00051440  50 t-inv F
 -0.750000  0.083333  0.333333    0.00051440  50 t-inv F
  0.333333  0.333333 -0.750000    0.00051440  50 t-inv F
 -0.333333 -0.333333  0.750000    0.00051440  50 t-inv F
 -0.083333  0.750000 -0.333333    0.00051440  50 t-inv F
  0.083333 -0.750000  0.333333    0.00051440  50 t-inv F
 -0.444444 -0.333333 -0.083333    0.00025720  51 t-inv F
  0.861111 -0.083333 -0.444444    0.00025720  51 t-inv F
 -0.861111  0.083333  0.444444    0.00025720  51 t-inv F
  0.333333  0.444444 -0.861111    0.00025720  51 t-inv F
 -0.333333 -0.444444  0.861111    0.00025720  51 t-inv F
 -0.083333  0.861111 -0.333333    0.00025720  51 t-inv F
  0.083333 -0.861111  0.333333    0.00025720  51 t-inv F
  0.083333 -0.861111  0.444444    0.00025720  51 t-inv F
 -0.083333  0.861111 -0.444444    0.00025720  51 t-inv F
 -0.444444 -0.333333  0.861111    0.00025720  51 t-inv F
  0.444444  0.333333 -0.861111    0.00025720  51 t-inv F
 -0.861111  0.083333  0.333333    0.00025720  51 t-inv F
  0.861111 -0.083333 -0.333333    0.00025720  51 t-inv F
 -0.333333 -0.444444 -0.083333    0.00025720  51 t-inv F
  0.333333  0.444444  0.083333    0.00025720  51 t-inv F
  0.444444 -0.333333 -0.083333    0.00025720  52 t-inv F
 -0.027778 -0.083333  0.444444    0.00025720  52 t-inv F
  0.027778  0.083333 -0.444444    0.00025720  52 t-inv F
  0.333333 -0.444444  0.027778    0.00025720  52 t-inv F
 -0.333333  0.444444 -0.027778    0.00025720  52 t-inv F
 -0.083333 -0.027778 -0.333333    0.00025720  52 t-inv F
  0.083333  0.027778  0.333333    0.00025720  52 t-inv F
  0.083333  0.027778 -0.444444    0.00025720  52 t-inv F
 -0.083333 -0.027778  0.444444    0.00025720  52 t-inv F
  0.444444 -0.333333 -0.027778    0.00025720  52 t-inv F
 -0.444444  0.333333  0.027778    0.00025720  52 t-inv F
  0.027778  0.083333  0.333333    0.00025720  52 t-inv F
 -0.027778 -0.083333 -0.333333    0.00025720  52 t-inv F
 -0.333333  0.444444 -0.083333    0.00025720  52 t-inv F
  0.333333 -0.444444  0.083333    0.00025720  52 t-inv F
  0.333333 -0.333333 -0.083333    0.00051440  53 t-inv F
  0.083333 -0.083333  0.333333    0.00051440  53 t-inv F
 -0.083333  0.083333 -0.333333    0.00051440  53 t-inv F
  0.083333 -0.083333 -0.333333    0.00051440  53 t-inv F
 -0.083333  0.083333  0.333333    0.00051440  53 t-inv F
  0.333333 -0.333333  0.083333    0.00051440  53 t-inv F
 -0.333333  0.333333 -0.083333    0.00051440  53 t-inv F
  0.222222 -0.333333 -0.083333    0.00025720  54 t-inv F
  0.194444 -0.083333  0.222222    0.00025720  54 t-inv F
 -0.194444  0.083333 -0.222222    0.00025720  54 t-inv F
  0.333333 -0.222222 -0.194444    0.00025720  54 t-inv F
 -0.333333  0.222222  0.194444    0.00025720  54 t-inv F
 -0.083333  0.194444 -0.333333    0.00025720  54 t-inv F
  0.083333 -0.194444  0.333333    0.00025720  54 t-inv F
  0.083333 -0.194444 -0.222222    0.00025720  54 t-inv F
 -0.083333  0.194444  0.222222    0.00025720  54 t-inv F
  0.222222 -0.333333  0.194444    0.00025720  54 t-inv F
 -0.222222  0.333333 -0.194444    0.00025720  54 t-inv F
 -0.194444  0.083333  0.333333    0.00025720  54 t-inv F
  0.194444 -0.083333 -0.333333    0.00025720  54 t-inv F
 -0.333333  0.222222 -0.083333    0.00025720  54 t-inv F
  0.333333 -0.222222  0.083333    0.00025720  54 t-inv F
  0.111111 -0.333333 -0.083333    0.00025720  55 t-inv F
  0.305556 -0.083333  0.111111    0.00025720  55 t-inv F
 -0.305556  0.083333 -0.111111    0.00025720  55 t-inv F
  0.333333 -0.111111 -0.305556    0.00025720  55 t-inv F
 -0.333333  0.111111  0.305556    0.00025720  55 t-inv F
 -0.083333  0.305556 -0.333333    0.00025720  55 t-inv F
  0.083333 -0.305556  0.333333    0.00025720  55 t-inv F
  0.083333 -0.305556 -0.111111    0.00025720  55 t-inv F
 -0.083333  0.305556  0.111111    0.00025720  55 t-inv F
  0.111111 -0.333333  0.305556    0.00025720  55 t-inv F
 -0.111111  0.333333 -0.305556    0.00025720  55 t-inv F
 -0.305556  0.083333  0.333333    0.00025720  55 t-inv F
  0.305556 -0.083333 -0.333333    0.00025720  55 t-inv F
 -0.333333  0.111111 -0.083333    0.00025720  55 t-inv F
  0.333333 -0.111111  0.083333    0.00025720  55 t-inv F
 -0.444444 -0.444444 -0.083333    0.00025720  56 t-inv F
  0.972222 -0.083333 -0.444444    0.00025720  56 t-inv F
 -0.972222  0.083333  0.444444    0.00025720  56 t-inv F
  0.444444  0.444444 -0.972222    0.00025720  56 t-inv F
 -0.444444 -0.444444  0.972222    0.00025720  56 t-inv F
 -0.083333  0.972222 -0.444444    0.00025720  56 t-inv F
  0.083333 -0.972222  0.444444    0.00025720  56 t-inv F
  0.444444 -0.444444 -0.083333    0.00051440  57 t-inv F
  0.083333 -0.083333  0.444444    0.00051440  57 t-inv F
 -0.083333  0.083333 -0.444444    0.00051440  57 t-inv F
  0.083333 -0.083333 -0.444444    0.00051440  57 t-inv F
 -0.083333  0.083333  0.444444    0.00051440  57 t-inv F
  0.444444 -0.444444  0.083333    0.00051440  57 t-inv F
 -0.444444  0.444444 -0.083333    0.00051440  57 t-inv F
  0.333333 -0.444444 -0.083333    0.00025720  58 t-inv F
  0.194444 -0.083333  0.333333    0.00025720  58 t-inv F
 -0.194444  0.083333 -0.333333    0.00025720  58 t-inv F
  0.444444 -0.333333 -0.194444    0.00025720  58 t-inv F
 -0.444444  0.333333  0.194444    0.00025720  58 t-inv F
 -0.083333  0.194444 -0.444444    0.00025720  58 t-inv F
  0.083333 -0.194444  0.444444    0.00025720  58 t-inv F
  0.083333 -0.194444 -0.333333    0.00025720  58 t-inv F
 -0.083333  0.194444  0.333333    0.00025720  58 t-inv F
  0.333333 -0.444444  0.194444    0.00025720  58 t-inv F
 -0.333333  0.444444 -0.194444    0.00025720  58 t-inv F
 -0.194444  0.083333  0.444444    0.00025720  58 t-inv F
  0.194444 -0.083333 -0.444444    0.00025720  58 t-inv F
 -0.444444  0.333333 -0.083333    0.00025720  58 t-inv F
  0.444444 -0.333333  0.083333    0.00025720  58 t-inv F
  0.222222 -0.444444 -0.083333    0.00025720  59 t-inv F
  0.305556 -0.083333  0.222222    0.00025720  59 t-inv F
 -0.305556  0.083333 -0.222222    0.00025720  59 t-inv F
  0.444444 -0.222222 -0.305556    0.00025720  59 t-inv F
 -0.444444  0.222222  0.305556    0.00025720  59 t-inv F
 -0.083333  0.305556 -0.444444    0.00025720  59 t-inv F
  0.083333 -0.305556  0.444444    0.00025720  59 t-inv F
  0.083333 -0.305556 -0.222222    0.00025720  59 t-inv F
 -0.083333  0.305556  0.222222    0.00025720  59 t-inv F
  0.222222 -0.444444  0.305556    0.00025720  59 t-inv F
 -0.222222  0.444444 -0.305556    0.00025720  59 t-inv F
 -0.305556  0.083333  0.444444    0.00025720  59 t-inv F
  0.305556 -0.083333 -0.444444    0.00025720  59 t-inv F
 -0.444444  0.222222 -0.083333    0.00025720  59 t-inv F
  0.444444 -0.222222  0.083333    0.00025720  59 t-inv F
  0.111111 -0.444444 -0.083333    0.00051440  60 t-inv F
  0.416667 -0.083333  0.111111    0.00051440  60 t-inv F
 -0.416667  0.083333 -0.111111    0.00051440  60 t-inv F
  0.444444 -0.111111 -0.416667    0.00051440  60 t-inv F
 -0.444444  0.111111  0.416667    0.00051440  60 t-inv F
 -0.083333  0.416667 -0.444444    0.00051440  60 t-inv F
  0.083333 -0.416667  0.444444    0.00051440  60 t-inv F
  0.083333 -0.416667 -0.111111    0.00051440  60 t-inv F
 -0.083333  0.416667  0.111111    0.00051440  60 t-inv F
  0.111111 -0.444444  0.416667    0.00051440  60 t-inv F
[...]
      9      -6.8226      2.00000
     10      -4.7199      2.00000
     11      -4.1062      2.00000
     12      -3.9361      2.00000
     13      -3.9274      2.00000
     14      -3.6314      2.00000
     15      -3.4859      2.00000
     16      -3.4784      2.00000
     17      -3.0006      2.00000
     18      -2.8589      2.00000
     19       8.3844      0.00000
     20       8.4790      0.00000
     21       8.9917      0.00000
     22       9.2791      0.00000
     23       9.3500      0.00000
     24      10.8359      0.00000

 k-point   383 :       0.5000    0.5000   -0.3083
  band No.  band energies     occupation 
      1     -46.6778      2.00000
      2     -46.6691      2.00000
      3     -23.7893      2.00000
      4     -23.7541      2.00000
      5     -23.4750      2.00000
      6     -20.9727      2.00000
      7      -7.3029      2.00000
      8      -7.1298      2.00000
      9      -6.7983      2.00000
     10      -4.6881      2.00000
     11      -4.0915      2.00000
     12      -4.0246      2.00000
     13      -3.9522      2.00000
     14      -3.5587      2.00000
     15      -3.4660      2.00000
     16      -3.4604      2.00000
     17      -3.0154      2.00000
     18      -2.8781      2.00000
     19       8.1311      0.00000
     20       8.5916      0.00000
     21       8.9473      0.00000
     22       9.1614      0.00000
     23       9.3916      0.00000
     24      10.6774      0.00000

 k-point   384 :       0.5000    0.5000   -0.3275
  band No.  band energies     occupation 
      1     -46.6782      2.00000
      2     -46.6688      2.00000
      3     -23.7984      2.00000
      4     -23.7642      2.00000
      5     -23.4624      2.00000
      6     -20.9684      2.00000
      7      -7.2554      2.00000
      8      -7.1325      2.00000
      9      -6.7960      2.00000
     10      -4.6523      2.00000
     11      -4.1072      2.00000
     12      -4.0771      2.00000
     13      -3.9639      2.00000
     14      -3.4861      2.00000
     15      -3.4412      2.00000
     16      -3.4358      2.00000
     17      -3.0295      2.00000
     18      -2.8963      2.00000
     19       7.8943      0.00000
     20       8.6952      0.00000
     21       8.8630      0.00000
     22       9.0653      0.00000
     23       9.4323      0.00000
     24      10.5251      0.00000

 k-point   385 :       0.5000    0.5000   -0.3467
  band No.  band energies     occupation 
      1     -46.6787      2.00000
      2     -46.6685      2.00000
      3     -23.8073      2.00000
      4     -23.7735      2.00000
      5     -23.4505      2.00000
      6     -20.9634      2.00000
      7      -7.2107      2.00000
      8      -7.1359      2.00000
      9      -6.8116      2.00000
     10      -4.6161      2.00000
     11      -4.1828      2.00000
     12      -4.0630      2.00000
     13      -3.9669      2.00000
     14      -3.4155      2.00000
     15      -3.4127      2.00000
     16      -3.4021      2.00000
     17      -3.0428      2.00000
     18      -2.9133      2.00000
     19       7.6764      0.00000
     20       8.7310      0.00000
     21       8.7897      0.00000
     22       9.0088      0.00000
     23       9.4716      0.00000
     24      10.3799      0.00000

 k-point   386 :       0.5000    0.5000   -0.3658
  band No.  band energies     occupation 
      1     -46.6790      2.00000
      2     -46.6682      2.00000
      3     -23.8159      2.00000
      4     -23.7821      2.00000
      5     -23.4395      2.00000
      6     -20.9579      2.00000
      7      -7.1696      2.00000
      8      -7.1399      2.00000
      9      -6.8399      2.00000
     10      -4.5826      2.00000
     11      -4.2507      2.00000
     12      -4.0494      2.00000
     13      -3.9657      2.00000
     14      -3.3913      2.00000
     15      -3.3487      2.00000
     16      -3.3483      2.00000
     17      -3.0549      2.00000
     18      -2.9287      2.00000
     19       7.4793      0.00000
     20       8.5783      0.00000
     21       8.8752      0.00000
     22       8.9737      0.00000
     23       9.5086      0.00000
     24      10.2427      0.00000

 k-point   387 :       0.5000    0.5000   -0.3850
  band No.  band energies     occupation 
      1     -46.6794      2.00000
      2     -46.6679      2.00000
      3     -23.8238      2.00000
      4     -23.7897      2.00000
      5     -23.4296      2.00000
      6     -20.9522      2.00000
      7      -7.1441      2.00000
      8      -7.1327      2.00000
      9      -6.8754      2.00000
     10      -4.5536      2.00000
     11      -4.3104      2.00000
     12      -4.0366      2.00000
     13      -3.9638      2.00000
     14      -3.3719      2.00000
     15      -3.2872      2.00000
     16      -3.2828      2.00000
     17      -3.0658      2.00000
     18      -2.9424      2.00000
     19       7.3049      0.00000
     20       8.4250      0.00000
     21       8.9474      0.00000
     22       8.9524      0.00000
     23       9.5427      0.00000
     24      10.1144      0.00000

 k-point   388 :       0.5000    0.5000   -0.4042
  band No.  band energies     occupation 
      1     -46.6797      2.00000
      2     -46.6677      2.00000
      3     -23.8310      2.00000
      4     -23.7964      2.00000
      5     -23.4210      2.00000
      6     -20.9467      2.00000
      7      -7.1483      2.00000
      8      -7.1006      2.00000
      9      -6.9133      2.00000
     10      -4.5296      2.00000
     11      -4.3613      2.00000
     12      -4.0249      2.00000
     13      -3.9629      2.00000
     14      -3.3549      2.00000
     15      -3.2324      2.00000
     16      -3.2108      2.00000
     17      -3.0754      2.00000
     18      -2.9542      2.00000
     19       7.1545      0.00000
     20       8.2817      0.00000
     21       8.9261      0.00000
     22       9.0222      0.00000
     23       9.5730      0.00000
     24       9.9961      0.00000

 k-point   389 :       0.5000    0.5000   -0.4233
  band No.  band energies     occupation 
      1     -46.6799      2.00000
      2     -46.6675      2.00000
      3     -23.8371      2.00000
      4     -23.8020      2.00000
      5     -23.4138      2.00000
      6     -20.9418      2.00000
      7      -7.1522      2.00000
      8      -7.0737      2.00000
      9      -6.9495      2.00000
     10      -4.5106      2.00000
     11      -4.4033      2.00000
     12      -4.0147      2.00000
     13      -3.9633      2.00000
     14      -3.3406      2.00000
     15      -3.1856      2.00000
     16      -3.1394      2.00000
     17      -3.0833      2.00000
     18      -2.9641      2.00000
     19       7.0297      0.00000
     20       8.1550      0.00000
     21       8.9087      0.00000
     22       9.0853      0.00000
     23       9.5990      0.00000
     24       9.8891      0.00000

 k-point   390 :       0.5000    0.5000   -0.4425
  band No.  band energies     occupation 
      1     -46.6801      2.00000
      2     -46.6674      2.00000
      3     -23.8420      2.00000
      4     -23.8063      2.00000
      5     -23.4080      2.00000
      6     -20.9376      2.00000
      7      -7.1554      2.00000
      8      -7.0525      2.00000
      9      -6.9807      2.00000
     10      -4.4962      2.00000
     11      -4.4360      2.00000
     12      -4.0063      2.00000
     13      -3.9648      2.00000
     14      -3.3291      2.00000
     15      -3.1480      2.00000
     16      -3.0897      2.00000
     17      -3.0755      2.00000
     18      -2.9718      2.00000
     19       6.9314      0.00000
     20       8.0507      0.00000
     21       8.8951      0.00000
     22       9.1420      0.00000
     23       9.6199      0.00000
     24       9.7958      0.00000

 k-point   391 :       0.5000    0.5000   -0.4617
  band No.  band energies     occupation 
      1     -46.6802      2.00000
      2     -46.6673      2.00000
      3     -23.8457      2.00000
      4     -23.8095      2.00000
      5     -23.4038      2.00000
      6     -20.9345      2.00000
      7      -7.1579      2.00000
      8      -7.0371      2.00000
      9      -7.0047      2.00000
     10      -4.4861      2.00000
     11      -4.4594      2.00000
     12      -4.0001      2.00000
     13      -3.9664      2.00000
     14      -3.3208      2.00000
     15      -3.1205      2.00000
     16      -3.0943      2.00000
     17      -3.0251      2.00000
     18      -2.9774      2.00000
     19       6.8605      0.00000
     20       7.9727      0.00000
     21       8.8853      0.00000
     22       9.1905      0.00000
     23       9.6353      0.00000
     24       9.7195      0.00000

 k-point   392 :       0.5000    0.5000   -0.4808
  band No.  band energies     occupation 
      1     -46.6803      2.00000
      2     -46.6672      2.00000
      3     -23.8479      2.00000
      4     -23.8115      2.00000
      5     -23.4012      2.00000
      6     -20.9325      2.00000
      7      -7.1595      2.00000
      8      -7.0279      2.00000
      9      -7.0197      2.00000
     10      -4.4801      2.00000
     11      -4.4734      2.00000
     12      -3.9962      2.00000
     13      -3.9677      2.00000
     14      -3.3158      2.00000
     15      -3.1037      2.00000
     16      -3.0971      2.00000
     17      -2.9930      2.00000
     18      -2.9808      2.00000
     19       6.8178      0.00000
     20       7.9247      0.00000
     21       8.8793      0.00000
     22       9.2257      0.00000
     23       9.6447      0.00000
     24       9.6671      0.00000

 k-point   393 :       0.5000    0.5000   -0.5000
  band No.  band energies     occupation 
      1     -46.6803      2.00000
      2     -46.6672      2.00000
      3     -23.8486      2.00000
      4     -23.8121      2.00000
      5     -23.4003      2.00000
      6     -20.9318      2.00000
      7      -7.1600      2.00000
      8      -7.0248      2.00000
      9      -7.0248      2.00000
     10      -4.4781      2.00000
     11      -4.4781      2.00000
     12      -3.9949      2.00000
     13      -3.9682      2.00000
     14      -3.3141      2.00000
     15      -3.0981      2.00000
     16      -3.0981      2.00000
     17      -2.9819      2.00000
     18      -2.9819      2.00000
     19       6.8035      0.00000
     20       7.9084      0.00000
     21       8.8774      0.00000
     22       9.2390      0.00000
     23       9.6479      0.00000
     24       9.6479      0.00000


--------------------------------------------------------------------------------------------------------


 soft charge-density along one line, spin component           1
         0         1         2         3         4         5         6         7         8         9
 total charge-density along one line
 
 pseudopotential strength for first ion, spin component:           1
 15.947  -4.217   0.000  -0.000   0.000  -0.000   0.000  -0.000
 -4.217   1.117  -0.000   0.000  -0.000   0.000  -0.000   0.000
  0.000  -0.000   1.105   0.000  -0.000  -1.184  -0.000   0.000
 -0.000   0.000   0.000   1.114   0.000  -0.000  -1.197  -0.000
  0.000  -0.000  -0.000   0.000   1.105   0.000  -0.000  -1.184
 -0.000   0.000  -1.184  -0.000   0.000   1.166   0.000  -0.000
  0.000  -0.000  -0.000  -1.197  -0.000   0.000   1.183   0.000
 -0.000   0.000   0.000  -0.000  -1.184  -0.000   0.000   1.166
 -0.000   0.000   0.000  -0.000   0.000  -0.000   0.000  -0.000
  0.000   0.000  -0.000   0.000  -0.000   0.000  -0.000   0.000
  0.006  -0.001   0.000  -0.000  -0.000  -0.000   0.000   0.000
  0.000  -0.000  -0.000   0.000  -0.000   0.000  -0.000   0.000
  0.000  -0.000  -0.000   0.000   0.000   0.000  -0.000  -0.000
 total augmentation occupancy for first ion, spin component:           1
  3.081   2.451   0.000   0.000  -0.000   0.000   0.000   0.000   0.000  -0.000   0.012   0.000   0.000
  2.451   2.068   0.000  -0.000  -0.000   0.000   0.000   0.000   0.000  -0.000  -0.003   0.000   0.000
  0.000   0.000   2.013  -0.000   0.000  -0.000  -0.000   0.000   0.000  -0.000   0.000   0.000  -0.000
  0.000  -0.000  -0.000   2.042   0.000  -0.000   0.020   0.000  -0.000   0.000   0.000  -0.000  -0.000
 -0.000  -0.000   0.000   0.000   2.013  -0.000   0.000  -0.000   0.000  -0.000   0.000  -0.000  -0.000
  0.000   0.000  -0.000  -0.000  -0.000   0.021   0.000  -0.000  -0.000  -0.000  -0.000   0.000  -0.000
  0.000   0.000  -0.000   0.020   0.000   0.000   0.012  -0.000   0.000   0.000  -0.000   0.000   0.000
  0.000   0.000   0.000   0.000  -0.000  -0.000  -0.000   0.021  -0.000  -0.000   0.000   0.000   0.000
  0.000   0.000   0.000  -0.000   0.000  -0.000   0.000  -0.000   0.020   0.000   0.000  -0.000  -0.000
 -0.000  -0.000  -0.000   0.000  -0.000  -0.000   0.000  -0.000   0.000   0.007   0.000   0.000   0.000
  0.012  -0.003   0.000   0.000   0.000  -0.000  -0.000   0.000   0.000   0.000   0.010  -0.000  -0.000
  0.000   0.000   0.000  -0.000  -0.000   0.000   0.000   0.000  -0.000   0.000  -0.000   0.007   0.000
  0.000   0.000  -0.000  -0.000  -0.000  -0.000   0.000   0.000  -0.000   0.000  -0.000   0.000   0.005


------------------------ aborting loop because EDIFF is reached ----------------------------------------


 


 total charge     
 
# of ion     s       p       d       tot
----------------------------------------
  1        2.295   4.745   0.036   7.076
  2        1.737   4.395   0.000   6.133
  3        1.741   4.411   0.000   6.152
  4        1.737   4.395   0.000   6.133
  5        2.008   0.038   0.000   2.046
  6        2.008   0.038   0.000   2.046
------------------------------------------------
tot       11.526  18.022   0.036  29.585
 
    FORLOC:  cpu time    0.0102: real time    0.0141
    FORHF :  cpu time**********: real time**********
    FORNL :  cpu time    0.7781: real time    1.0786
    STRESS:  cpu time    2.8867: real time    2.8865
    FORCOR:  cpu time    0.2239: real time    0.2343
    OFIELD:  cpu time    0.0002: real time    0.0002

  FORCE on cell =-STRESS in cart. coord.  units (eV):
  Direction    XX          YY          ZZ          XY          YZ          ZX
  --------------------------------------------------------------------------------------
  Alpha Z   123.79994   123.79994   123.79994
  Ewald    -623.19990  -623.19990  -718.24102     0.00000     0.00000     0.00000
  Hartree   306.37528   306.37528   224.66987     0.00000     0.00000     0.00000
  E(xc)    -138.30891  -138.30891  -138.43825    -0.00000    -0.00000    -0.00000
  Local    -252.40806  -252.40806   -71.66652     0.00001     0.00000     0.00000
  n-local  -135.90626  -135.68736  -135.98327    -0.00263     0.01095     0.00082
  augment    69.93787    69.93787    69.89192    -0.00001    -0.00000    -0.00000
  Kinetic   688.10279   690.02206   685.46011    -0.06000    -0.04730    -0.00492
  Fock            NaN         NaN         NaN         NaN         NaN         NaN
  -------------------------------------------------------------------------------------
  Total           NaN         NaN         NaN         NaN         NaN         NaN
  in kB           NaN         NaN         NaN         NaN         NaN         NaN
  external pressure =         NaN kB  Pullay stress =        0.00 kB


 VOLUME and BASIS-vectors are now :
 -----------------------------------------------------------------------------
  energy-cutoff  :      520.00
  volume of cell :       84.43
      direct lattice vectors                 reciprocal lattice vectors
    -2.029148202  2.029148202  5.126523248     0.000000000  0.246408813  0.097531987
     2.029148202 -2.029148202  5.126523248     0.246408813  0.000000000  0.097531987
     2.029148202  2.029148202 -5.126523248     0.246408813  0.246408813  0.000000000

  length of vectors
     5.875042593  5.875042593  5.875042593     0.265009041  0.265009041  0.348474685


 FORCES acting on ions:
    Electron-Ion                     Ewald-Force                    Non-Local-Force
 -----------------------------------------------------------------------------------------------
   -.977E-09 -.634E-09 0.549E-08   -.605E-15 -.102E-13 -.178E-14   0.331E-23 -.165E-23 0.000E+00
   0.862E-06 0.311E-07 -.555E-08   0.603E-16 0.123E-13 0.355E-14   0.108E-17 -.651E-18 -.130E-17
   -.110E-07 -.641E-08 -.424E-07   -.168E-14 0.833E-14 0.711E-14   0.106E-21 -.106E-21 0.424E-21
   -.863E-06 -.309E-07 -.560E-08   0.293E-14 -.842E-14 -.355E-14   -.369E-17 0.867E-18 -.130E-17
   -.987E-06 -.790E-06 0.542E+00   -.880E-16 -.580E-14 0.220E+00   0.867E-18 0.867E-18 -.747E+00
   0.988E-06 0.790E-06 -.542E+00   -.394E-15 0.533E-14 -.220E+00   0.173E-17 0.173E-17 0.747E+00
 -----------------------------------------------------------------------------------------------
   -.149E-07 -.842E-08 -.687E-07   0.216E-15 0.159E-14 -.178E-14   -.328E-20 0.282E-17 0.000E+00
 
 
 POSITION                                       TOTAL-FORCE (eV/Angst)
 -----------------------------------------------------------------------------------
      0.00000      0.00000      0.00000              NaN           NaN           NaN
      0.00000      2.02915      2.56326              NaN           NaN           NaN
      0.00000      0.00000      5.12652              NaN           NaN           NaN
      2.02915      0.00000      2.56326              NaN           NaN           NaN
      0.00000      0.00000      3.17139              NaN           NaN           NaN
      0.00000      0.00000      7.08166              NaN           NaN           NaN
 -----------------------------------------------------------------------------------
    total drift:                                     NaN           NaN           NaN


--------------------------------------------------------------------------------------------------------



  FREE ENERGIE OF THE ION-ELECTRON SYSTEM (eV)
  ---------------------------------------------------
  free  energy   TOTEN  =       -32.07342749 eV

  energy  without entropy=      -32.07342749  energy(sigma->0) =      -32.07342749
 


--------------------------------------------------------------------------------------------------------


    POTLOK:  cpu time    0.4610: real time    0.5111


--------------------------------------------------------------------------------------------------------


     LOOP+:  cpu time**********: real time**********
    4ORBIT:  cpu time    0.0000: real time    0.0000
 


 total charge     
 
# of ion     s       p       d       tot
----------------------------------------
  1        2.295   4.745   0.036   7.076
  2        1.737   4.395   0.000   6.133
  3        1.741   4.411   0.000   6.152
  4        1.737   4.395   0.000   6.133
  5        2.008   0.038   0.000   2.046
  6        2.008   0.038   0.000   2.046
------------------------------------------------
tot       11.526  18.022   0.036  29.585
 

 total amount of memory used by VASP on root node   116439. kBytes
========================================================================

   base      :      30000. kBytes
   nonl-proj :      44912. kBytes
   fftplans  :       3494. kBytes
   grid      :       1755. kBytes
   one-center:          8. kBytes
   HF        :         33. kBytes
   nonlr-proj:       7263. kBytes
   wavefun   :      28974. kBytes
 
  
  
 General timing and accounting informations for this job:
 ========================================================
  
                  Total CPU time used (sec):   621891.000
                            User time (sec):   621789.280
                          System time (sec):      101.689
                         Elapsed time (sec):   621962.163
  
                   Maximum memory used (kb):      452276.
                   Average memory used (kb):           0.
  
                          Minor page faults:     50919503
                          Major page faults:          314
                 Voluntary context switches:        27095
