 vasp.5.4.1 24Jun15 (build Nov 23 2015 09:58:10) complex                        
  
 executed on             LinuxIFC date 2022.11.22  14:02:52
 running on   96 total cores
 distrk:  each k-point on   96 cores,    1 groups
 distr:  one band on NCORES_PER_BAND=  12 cores,    8 groups


--------------------------------------------------------------------------------------------------------


 INCAR:
 POTCAR:    PAW_PBE Te 08Apr2002                  
 POTCAR:    PAW_PBE Pb_d 06Sep2000                
 POTCAR:    PAW_PBE Te 08Apr2002                  
   VRHFIN =Te: s2p4                                                             
   LEXCH  = PE                                                                  
   EATOM  =   223.2721 eV,   16.4100 Ry                                         
                                                                                
   TITEL  = PAW_PBE Te 08Apr2002                                                
   LULTRA =        F    use ultrasoft PP ?                                      
   IUNSCR =        1    unscreen: 0-lin 1-nonlin 2-no                           
   RPACOR =    2.200    partial core radius                                     
   POMASS =  127.600; ZVAL   =    6.000    mass and valenz                      
   RCORE  =    2.300    outmost cutoff radius                                   
   RWIGS  =    2.900; RWIGS  =    1.535    wigner-seitz radius (au A)           
   ENMAX  =  174.982; ENMIN  =  131.236 eV                                      
   ICORE  =        3    local potential                                         
   LCOR   =        T    correct aug charges                                     
   LPAW   =        T    paw PP                                                  
   EAUG   =  368.792                                                            
   DEXC   =    0.000                                                            
   RMAX   =    2.345    core radius for proj-oper                               
   RAUG   =    1.300    factor for augmentation sphere                          
   RDEP   =    2.397    radius for radial grids                                 
   RDEPT  =    2.174    core radius for aug-charge                              
                                                                                
   Atomic configuration                                                         
   13 entries                                                                   
     n  l   j            E        occ.                                          
     1  0  0.50    -31621.2075   2.0000                                         
     2  0  0.50     -4848.7941   2.0000                                         
     2  1  1.50     -4352.1960   6.0000                                         
     3  0  0.50      -964.9612   2.0000                                         
     3  1  1.50      -803.6179   6.0000                                         
     3  2  2.50      -559.8710  10.0000                                         
     4  0  0.50      -164.3522   2.0000                                         
     4  1  1.50      -114.3756   6.0000                                         
     4  2  2.50       -41.6483  10.0000                                         
     5  0  0.50       -15.1072   2.0000                                         
     5  1  0.50        -5.9526   4.0000                                         
     5  2  1.50        -5.4423   0.0000                                         
     4  3  2.50        -5.4423   0.0000                                         
   Description                                                                  
     l       E           TYP  RCUT    TYP  RCUT                                 
     0    -15.1072389     23  2.300                                             
     0    -16.4678215     23  2.300                                             
     1     -5.9526306     23  2.300                                             
     1     -2.4873968     23  2.300                                             
     2     -5.4423304     23  2.300                                             
     3     -1.3605826     23  2.300                                             
  local pseudopotential read in
  partial core-charges read in
  partial kinetic energy density read in
  atomic valenz-charges read in
  non local Contribution for L=           0  read in
    real space projection operators read in
  non local Contribution for L=           0  read in
    real space projection operators read in
  non local Contribution for L=           1  read in
    real space projection operators read in
  non local Contribution for L=           1  read in
    real space projection operators read in
  non local Contribution for L=           2  read in
    real space projection operators read in
    PAW grid and wavefunctions read in
 
   number of l-projection  operators is LMAX  =           5
   number of lm-projection operators is LMMAX =          13
 
 POTCAR:    PAW_PBE Pb_d 06Sep2000                
   VRHFIN =Pb:                                                                  
   LEXCH  = PE                                                                  
   EATOM  =  1661.6185 eV,  122.1255 Ry                                         
                                                                                
   TITEL  = PAW_PBE Pb_d 06Sep2000                                              
   LULTRA =        F    use ultrasoft PP ?                                      
   IUNSCR =        1    unscreen: 0-lin 1-nonlin 2-no                           
   RPACOR =    2.200    partial core radius                                     
   POMASS =  207.200; ZVAL   =   14.000    mass and valenz                      
   RCORE  =    2.500    outmost cutoff radius                                   
   RWIGS  =    3.260; RWIGS  =    1.725    wigner-seitz radius (au A)           
   ENMAX  =  237.835; ENMIN  =  178.376 eV                                      
   ICORE  =        3    local potential                                         
   LCOR   =        T    correct aug charges                                     
   LPAW   =        T    paw PP                                                  
   EAUG   =  391.914                                                            
   DEXC   =    0.000                                                            
   RMAX   =    2.565    core radius for proj-oper                               
   RAUG   =    1.300    factor for augmentation sphere                          
   RDEP   =    2.643    radius for radial grids                                 
   RDEPT  =    2.092    core radius for aug-charge                              
                                                                                
   Atomic configuration                                                         
   16 entries                                                                   
     n  l   j            E        occ.                                          
     1  0  0.50    -88091.8466   2.0000                                         
     2  0  0.50    -15753.4197   2.0000                                         
     2  1  1.50    -13508.1797   6.0000                                         
     3  0  0.50     -3781.7194   2.0000                                         
     3  1  1.50     -3138.2529   6.0000                                         
     3  2  2.50     -2483.2977  10.0000                                         
     4  0  0.50      -856.2895   2.0000                                         
     4  1  1.50      -645.4942   6.0000                                         
     4  2  2.50      -401.8768  10.0000                                         
     4  3  3.50      -132.9059  14.0000                                         
     5  0  0.50      -144.0950   2.0000                                         
     5  1  1.50       -85.7879   6.0000                                         
     5  2  2.50       -21.1769  10.0000                                         
     6  0  0.50       -12.0372   2.0000                                         
     6  1  1.50        -3.4971   2.0000                                         
     5  3  2.50        -2.7212   0.0000                                         
   Description                                                                  
     l       E           TYP  RCUT    TYP  RCUT                                 
     2    -21.1768523     23  2.500                                             
     2      1.3605826     23  2.500                                             
     0    -12.0371562     23  2.500                                             
     0     13.6058260     23  2.500                                             
     1     -3.4971339     23  2.500                                             
     1     13.6058260     23  2.500                                             
     3     -1.3605826      7  2.500                                             
  local pseudopotential read in
  partial core-charges read in
  partial kinetic energy density read in
  atomic valenz-charges read in
  non local Contribution for L=           2  read in
    real space projection operators read in
  non local Contribution for L=           2  read in
    real space projection operators read in
  non local Contribution for L=           0  read in
    real space projection operators read in
  non local Contribution for L=           0  read in
    real space projection operators read in
  non local Contribution for L=           1  read in
    real space projection operators read in
  non local Contribution for L=           1  read in
    real space projection operators read in
    PAW grid and wavefunctions read in
 
   number of l-projection  operators is LMAX  =           6
   number of lm-projection operators is LMMAX =          18
 
  PAW_PBE Te 08Apr2002                  :
 energy of atom  1       EATOM= -223.2721
 kinetic energy error for atom=    0.0007 (will be added to EATOM!!)
  PAW_PBE Pb_d 06Sep2000                :
 energy of atom  2       EATOM=-1661.6185
 kinetic energy error for atom=    0.0037 (will be added to EATOM!!)
 
 
 POSCAR: Primitive Cell                          
  positions in direct lattice
  No initial velocities read in
 exchange correlation table for  LEXCH =        8
   RHO(1)=    0.500       N(1)  =     2000
   RHO(2)=  100.500       N(2)  =     4000
 


--------------------------------------------------------------------------------------------------------


 ion  position               nearest neighbor table
   1  0.875  0.750  0.749-   8 3.28   8 3.28   5 3.28   6 3.29   8 3.29   8 3.29
   2  0.375  0.750  0.751-   7 3.28   7 3.28   6 3.28   5 3.29   7 3.29   7 3.29
   3  0.125  0.250  0.251-   6 3.28   6 3.28   7 3.28   8 3.29   6 3.29   6 3.29
   4  0.625  0.250  0.249-   5 3.28   5 3.28   8 3.28   7 3.29   5 3.29   5 3.29
   5  0.625  0.750  0.748-   4 3.28   4 3.28   1 3.28   2 3.29   4 3.29   4 3.29
   6  0.125  0.750  0.752-   3 3.28   3 3.28   2 3.28   1 3.29   3 3.29   3 3.29
   7  0.375  0.250  0.252-   2 3.28   2 3.28   3 3.28   4 3.29   2 3.29   2 3.29
   8  0.875  0.250  0.248-   1 3.28   1 3.28   4 3.28   3 3.29   1 3.29   1 3.29
 
  LATTYP: Found a simple orthorhombic cell.
 ALAT       =     4.6341063907
 B/A-ratio  =     1.0038625643
 C/A-ratio  =     2.8353799618
  
  Lattice vectors:
  
 A1 = (   0.0000000000,   0.0000000000,  -4.6341063907)
 A2 = (   0.0000000000,  -4.6520059247,   0.0000000000)
 A3 = ( -13.1394524010,   0.0000000000,   0.0000000000)


Analysis of symmetry for initial positions (statically):
=====================================================================
 Subroutine PRICEL returns:
 Original cell was already a primitive cell.
 

 Routine SETGRP: Setting up the symmetry group for a 
 simple orthorhombic supercell.


 Subroutine GETGRP returns: Found  8 space group operations
 (whereof  2 operations were pure point group operations)
 out of a pool of  8 trial point group operations.


The static configuration has the point symmetry S_2 .
 The point group associated with its full space group is D_2h.


Analysis of symmetry for dynamics (positions and initial velocities):
=====================================================================
 Subroutine PRICEL returns:
 Original cell was already a primitive cell.
 

 Routine SETGRP: Setting up the symmetry group for a 
 simple orthorhombic supercell.


 Subroutine GETGRP returns: Found  8 space group operations
 (whereof  2 operations were pure point group operations)
 out of a pool of  8 trial point group operations.


The dynamic configuration has the point symmetry S_2 .
 The point group associated with its full space group is D_2h.
 
 
 KPOINTS: 0.030   3   7   7   32  0.040  148   12 
  k-points in reciprocal lattice
Space group operators:
 irot       det(A)        alpha          n_x          n_y          n_z        tau_x        tau_y        tau_z
    1     1.000000     0.000001     1.000000     0.000000     0.000000     0.000000     0.000000     0.000000
    2    -1.000000     0.000001     1.000000     0.000000     0.000000     0.000000     0.000000     0.000000
    3     1.000000   180.000000     1.000000     0.000000     0.000000    -0.500000    -0.500000    -0.500000
    4    -1.000000   180.000000     1.000000     0.000000     0.000000    -0.500000    -0.500000    -0.500000
    5     1.000000   180.000000     0.000000     1.000000     0.000000     0.000000    -0.500000     0.000000
    6    -1.000000   180.000000     0.000000     1.000000     0.000000     0.000000    -0.500000     0.000000
    7     1.000000   179.999999     0.000000     0.000000     1.000000    -0.500000     0.000000    -0.500000
    8    -1.000000   179.999999     0.000000     0.000000     1.000000    -0.500000     0.000000    -0.500000

 ----------------------------------------------------------------------------- 
|                                                                             |
|           W    W    AA    RRRRR   N    N  II  N    N   GGGG   !!!           |
|           W    W   A  A   R    R  NN   N  II  NN   N  G    G  !!!           |
|           W    W  A    A  R    R  N N  N  II  N N  N  G       !!!           |
|           W WW W  AAAAAA  RRRRR   N  N N  II  N  N N  G  GGG   !            |
|           WW  WW  A    A  R   R   N   NN  II  N   NN  G    G                |
|           W    W  A    A  R    R  N    N  II  N    N   GGGG   !!!           |
|                                                                             |
|      Your generating k-point grid is not commensurate to the symmetry       |
|      of the lattice.  This can cause   slow convergence with respect        |
|      to k-points for HF type calculations                                   |
|      suggested SOLUTIONS:                                                   |
|       ) if not already the case, use automatic k-point generation           |
|       ) shift your grid to Gamma (G) (e.g. required for hex or fcc lattice) |
|                                                                             |
 ----------------------------------------------------------------------------- 

 
 Subroutine IBZKPT_HF returns following result:
 ==============================================
 
 Found    295 k-points in 1st BZ
 the following    295 k-points will be used (e.g. in the exchange kernel)
 Following reciprocal coordinates:   # in IRBZ
  0.000000  0.000000  0.000000    0.00680272   1 t-inv F
  0.333333  0.000000  0.000000    0.00680272   2 t-inv F
  0.000000  0.142857  0.000000    0.00680272   3 t-inv F
  0.333333  0.142857  0.000000    0.00680272   4 t-inv F
  0.000000  0.285714  0.000000    0.00680272   5 t-inv F
  0.333333  0.285714  0.000000    0.00680272   6 t-inv F
  0.000000  0.428571  0.000000    0.00680272   7 t-inv F
  0.333333  0.428571  0.000000    0.00680272   8 t-inv F
  0.000000  0.000000  0.142857    0.00680272   9 t-inv F
  0.333333  0.000000  0.142857    0.00680272  10 t-inv F
  0.000000  0.142857  0.142857    0.00680272  11 t-inv F
  0.333333  0.142857  0.142857    0.00680272  12 t-inv F
  0.000000  0.285714  0.142857    0.00680272  13 t-inv F
  0.333333  0.285714  0.142857    0.00680272  14 t-inv F
  0.000000  0.428571  0.142857    0.00680272  15 t-inv F
  0.333333  0.428571  0.142857    0.00680272  16 t-inv F
  0.000000  0.000000  0.285714    0.00680272  17 t-inv F
  0.333333  0.000000  0.285714    0.00680272  18 t-inv F
  0.000000  0.142857  0.285714    0.00680272  19 t-inv F
  0.333333  0.142857  0.285714    0.00680272  20 t-inv F
  0.000000  0.285714  0.285714    0.00680272  21 t-inv F
  0.333333  0.285714  0.285714    0.00680272  22 t-inv F
  0.000000  0.428571  0.285714    0.00680272  23 t-inv F
  0.333333  0.428571  0.285714    0.00680272  24 t-inv F
  0.000000  0.000000  0.428571    0.00680272  25 t-inv F
  0.333333  0.000000  0.428571    0.00680272  26 t-inv F
  0.000000  0.142857  0.428571    0.00680272  27 t-inv F
  0.333333  0.142857  0.428571    0.00680272  28 t-inv F
  0.000000  0.285714  0.428571    0.00680272  29 t-inv F
  0.333333  0.285714  0.428571    0.00680272  30 t-inv F
  0.000000  0.428571  0.428571    0.00680272  31 t-inv F
  0.333333  0.428571  0.428571    0.00680272  32 t-inv F
  0.000000  0.000000  0.000000    0.00000000  33 t-inv F
  0.125000  0.000000  0.000000    0.00000000  34 t-inv F
  0.250000  0.000000  0.000000    0.00000000  35 t-inv F
  0.375000  0.000000  0.000000    0.00000000  36 t-inv F
  0.500000  0.000000  0.000000    0.00000000  37 t-inv F
  0.500000  0.000000  0.000000    0.00000000  38 t-inv F
  0.500000  0.033333  0.000000    0.00000000  39 t-inv F
  0.500000  0.066667  0.000000    0.00000000  40 t-inv F
  0.500000  0.100000  0.000000    0.00000000  41 t-inv F
  0.500000  0.133333  0.000000    0.00000000  42 t-inv F
  0.500000  0.166667  0.000000    0.00000000  43 t-inv F
  0.500000  0.200000  0.000000    0.00000000  44 t-inv F
  0.500000  0.233333  0.000000    0.00000000  45 t-inv F
  0.500000  0.266667  0.000000    0.00000000  46 t-inv F
  0.500000  0.300000  0.000000    0.00000000  47 t-inv F
  0.500000  0.333333  0.000000    0.00000000  48 t-inv F
  0.500000  0.366667  0.000000    0.00000000  49 t-inv F
  0.500000  0.400000  0.000000    0.00000000  50 t-inv F
  0.500000  0.433333  0.000000    0.00000000  51 t-inv F
  0.500000  0.466667  0.000000    0.00000000  52 t-inv F
  0.500000  0.500000  0.000000    0.00000000  53 t-inv F
  0.500000  0.500000  0.000000    0.00000000  54 t-inv F
  0.375000  0.500000  0.000000    0.00000000  55 t-inv F
  0.250000  0.500000  0.000000    0.00000000  56 t-inv F
  0.125000  0.500000  0.000000    0.00000000  57 t-inv F
  0.000000  0.500000  0.000000    0.00000000  58 t-inv F
  0.000000  0.500000  0.000000    0.00000000  59 t-inv F
  0.000000  0.466667  0.000000    0.00000000  60 t-inv F
  0.000000  0.433333  0.000000    0.00000000  61 t-inv F
  0.000000  0.400000  0.000000    0.00000000  62 t-inv F
  0.000000  0.366667  0.000000    0.00000000  63 t-inv F
  0.000000  0.333333  0.000000    0.00000000  64 t-inv F
  0.000000  0.300000  0.000000    0.00000000  65 t-inv F
  0.000000  0.266667  0.000000    0.00000000  66 t-inv F
  0.000000  0.233333  0.000000    0.00000000  67 t-inv F
  0.000000  0.200000  0.000000    0.00000000  68 t-inv F
  0.000000  0.166667  0.000000    0.00000000  69 t-inv F
  0.000000  0.133333  0.000000    0.00000000  70 t-inv F
  0.000000  0.100000  0.000000    0.00000000  71 t-inv F
  0.000000  0.066667  0.000000    0.00000000  72 t-inv F
  0.000000  0.033333  0.000000    0.00000000  73 t-inv F
  0.000000  0.000000  0.000000    0.00000000  74 t-inv F
  0.000000  0.000000  0.000000    0.00000000  75 t-inv F
  0.000000  0.000000  0.033333    0.00000000  76 t-inv F
  0.000000  0.000000  0.066667    0.00000000  77 t-inv F
  0.000000  0.000000  0.100000    0.00000000  78 t-inv F
  0.000000  0.000000  0.133333    0.00000000  79 t-inv F
  0.000000  0.000000  0.166667    0.00000000  80 t-inv F
  0.000000  0.000000  0.200000    0.00000000  81 t-inv F
  0.000000  0.000000  0.233333    0.00000000  82 t-inv F
  0.000000  0.000000  0.266667    0.00000000  83 t-inv F
  0.000000  0.000000  0.300000    0.00000000  84 t-inv F
  0.000000  0.000000  0.333333    0.00000000  85 t-inv F
  0.000000  0.000000  0.366667    0.00000000  86 t-inv F
  0.000000  0.000000  0.400000    0.00000000  87 t-inv F
  0.000000  0.000000  0.433333    0.00000000  88 t-inv F
  0.000000  0.000000  0.466667    0.00000000  89 t-inv F
  0.000000  0.000000  0.500000    0.00000000  90 t-inv F
  0.000000  0.000000  0.500000    0.00000000  91 t-inv F
  0.125000  0.000000  0.500000    0.00000000  92 t-inv F
  0.250000  0.000000  0.500000    0.00000000  93 t-inv F
  0.375000  0.000000  0.500000    0.00000000  94 t-inv F
  0.500000  0.000000  0.500000    0.00000000  95 t-inv F
  0.500000  0.000000  0.500000    0.00000000  96 t-inv F
  0.500000  0.033333  0.500000    0.00000000  97 t-inv F
  0.500000  0.066667  0.500000    0.00000000  98 t-inv F
  0.500000  0.100000  0.500000    0.00000000  99 t-inv F
  0.500000  0.133333  0.500000    0.00000000 100 t-inv F
  0.500000  0.166667  0.500000    0.00000000 101 t-inv F
  0.500000  0.200000  0.500000    0.00000000 102 t-inv F
  0.500000  0.233333  0.500000    0.00000000 103 t-inv F
  0.500000  0.266667  0.500000    0.00000000 104 t-inv F
  0.500000  0.300000  0.500000    0.00000000 105 t-inv F
  0.500000  0.333333  0.500000    0.00000000 106 t-inv F
  0.500000  0.366667  0.500000    0.00000000 107 t-inv F
  0.500000  0.400000  0.500000    0.00000000 108 t-inv F
  0.500000  0.433333  0.500000    0.00000000 109 t-inv F
  0.500000  0.466667  0.500000    0.00000000 110 t-inv F
  0.500000  0.500000  0.500000    0.00000000 111 t-inv F
  0.500000  0.500000  0.500000    0.00000000 112 t-inv F
  0.375000  0.500000  0.500000    0.00000000 113 t-inv F
  0.250000  0.500000  0.500000    0.00000000 114 t-inv F
  0.125000  0.500000  0.500000    0.00000000 115 t-inv F
  0.000000  0.500000  0.500000    0.00000000 116 t-inv F
  0.000000  0.500000  0.500000    0.00000000 117 t-inv F
  0.000000  0.466667  0.500000    0.00000000 118 t-inv F
  0.000000  0.433333  0.500000    0.00000000 119 t-inv F
  0.000000  0.400000  0.500000    0.00000000 120 t-inv F
  0.000000  0.366667  0.500000    0.00000000 121 t-inv F
  0.000000  0.333333  0.500000    0.00000000 122 t-inv F
  0.000000  0.300000  0.500000    0.00000000 123 t-inv F
  0.000000  0.266667  0.500000    0.00000000 124 t-inv F
  0.000000  0.233333  0.500000    0.00000000 125 t-inv F
  0.000000  0.200000  0.500000    0.00000000 126 t-inv F
  0.000000  0.166667  0.500000    0.00000000 127 t-inv F
  0.000000  0.133333  0.500000    0.00000000 128 t-inv F
  0.000000  0.100000  0.500000    0.00000000 129 t-inv F
  0.000000  0.066667  0.500000    0.00000000 130 t-inv F
  0.000000  0.033333  0.500000    0.00000000 131 t-inv F
  0.000000  0.000000  0.500000    0.00000000 132 t-inv F
  0.500000  0.000000  0.000000    0.00000000 133 t-inv F
  0.500000  0.000000  0.033333    0.00000000 134 t-inv F
  0.500000  0.000000  0.066667    0.00000000 135 t-inv F
  0.500000  0.000000  0.100000    0.00000000 136 t-inv F
  0.500000  0.000000  0.133333    0.00000000 137 t-inv F
  0.500000  0.000000  0.166667    0.00000000 138 t-inv F
  0.500000  0.000000  0.200000    0.00000000 139 t-inv F
  0.500000  0.000000  0.233333    0.00000000 140 t-inv F
  0.500000  0.000000  0.266667    0.00000000 141 t-inv F
  0.500000  0.000000  0.300000    0.00000000 142 t-inv F
  0.500000  0.000000  0.333333    0.00000000 143 t-inv F
  0.500000  0.000000  0.366667    0.00000000 144 t-inv F
  0.500000  0.000000  0.400000    0.00000000 145 t-inv F
  0.500000  0.000000  0.433333    0.00000000 146 t-inv F
  0.500000  0.000000  0.466667    0.00000000 147 t-inv F
  0.500000  0.000000  0.500000    0.00000000 148 t-inv F
  0.000000  0.500000  0.000000    0.00000000 149 t-inv F
  0.000000  0.500000  0.033333    0.00000000 150 t-inv F
  0.000000  0.500000  0.066667    0.00000000 151 t-inv F
  0.000000  0.500000  0.100000    0.00000000 152 t-inv F
  0.000000  0.500000  0.133333    0.00000000 153 t-inv F
  0.000000  0.500000  0.166667    0.00000000 154 t-inv F
  0.000000  0.500000  0.200000    0.00000000 155 t-inv F
  0.000000  0.500000  0.233333    0.00000000 156 t-inv F
  0.000000  0.500000  0.266667    0.00000000 157 t-inv F
  0.000000  0.500000  0.300000    0.00000000 158 t-inv F
  0.000000  0.500000  0.333333    0.00000000 159 t-inv F
  0.000000  0.500000  0.366667    0.00000000 160 t-inv F
  0.000000  0.500000  0.400000    0.00000000 161 t-inv F
  0.000000  0.500000  0.433333    0.00000000 162 t-inv F
  0.000000  0.500000  0.466667    0.00000000 163 t-inv F
  0.000000  0.500000  0.500000    0.00000000 164 t-inv F
  0.500000  0.500000  0.000000    0.00000000 165 t-inv F
  0.500000  0.500000  0.033333    0.00000000 166 t-inv F
  0.500000  0.500000  0.066667    0.00000000 167 t-inv F
  0.500000  0.500000  0.100000    0.00000000 168 t-inv F
  0.500000  0.500000  0.133333    0.00000000 169 t-inv F
  0.500000  0.500000  0.166667    0.00000000 170 t-inv F
  0.500000  0.500000  0.200000    0.00000000 171 t-inv F
  0.500000  0.500000  0.233333    0.00000000 172 t-inv F
  0.500000  0.500000  0.266667    0.00000000 173 t-inv F
  0.500000  0.500000  0.300000    0.00000000 174 t-inv F
  0.500000  0.500000  0.333333    0.00000000 175 t-inv F
  0.500000  0.500000  0.366667    0.00000000 176 t-inv F
  0.500000  0.500000  0.400000    0.00000000 177 t-inv F
  0.500000  0.500000  0.433333    0.00000000 178 t-inv F
  0.500000  0.500000  0.466667    0.00000000 179 t-inv F
  0.500000  0.500000  0.500000    0.00000000 180 t-inv F
 -0.333333  0.000000  0.000000    0.00680272   2 t-inv F
  0.000000 -0.142857  0.000000    0.00680272   3 t-inv F
 -0.333333 -0.142857  0.000000    0.00680272   4 t-inv F
  0.333333 -0.142857  0.000000    0.00680272   4 t-inv F
 -0.333333  0.142857  0.000000    0.00680272   4 t-inv F
  0.000000 -0.285714  0.000000    0.00680272   5 t-inv F
 -0.333333 -0.285714  0.000000    0.00680272   6 t-inv F
  0.333333 -0.285714  0.000000    0.00680272   6 t-inv F
 -0.333333  0.285714  0.000000    0.00680272   6 t-inv F
  0.000000 -0.428571  0.000000    0.00680272   7 t-inv F
 -0.333333 -0.428571  0.000000    0.00680272   8 t-inv F
  0.333333 -0.428571  0.000000    0.00680272   8 t-inv F
 -0.333333  0.428571  0.000000    0.00680272   8 t-inv F
  0.000000  0.000000 -0.142857    0.00680272   9 t-inv F
 -0.333333  0.000000 -0.142857    0.00680272  10 t-inv F
  0.333333  0.000000 -0.142857    0.00680272  10 t-inv F
 -0.333333  0.000000  0.142857    0.00680272  10 t-inv F
  0.000000 -0.142857 -0.142857    0.00680272  11 t-inv F
  0.000000  0.142857 -0.142857    0.00680272  11 t-inv F
  0.000000 -0.142857  0.142857    0.00680272  11 t-inv F
 -0.333333 -0.142857 -0.142857    0.00680272  12 t-inv F
  0.333333 -0.142857 -0.142857    0.00680272  12 t-inv F
 -0.333333  0.142857  0.142857    0.00680272  12 t-inv F
 -0.333333  0.142857 -0.142857    0.00680272  12 t-inv F
  0.333333 -0.142857  0.142857    0.00680272  12 t-inv F
 -0.333333 -0.142857  0.142857    0.00680272  12 t-inv F
  0.333333  0.142857 -0.142857    0.00680272  12 t-inv F
  0.000000 -0.285714 -0.142857    0.00680272  13 t-inv F
  0.000000  0.285714 -0.142857    0.00680272  13 t-inv F
  0.000000 -0.285714  0.142857    0.00680272  13 t-inv F
 -0.333333 -0.285714 -0.142857    0.00680272  14 t-inv F
  0.333333 -0.285714 -0.142857    0.00680272  14 t-inv F
 -0.333333  0.285714  0.142857    0.00680272  14 t-inv F
 -0.333333  0.285714 -0.142857    0.00680272  14 t-inv F
  0.333333 -0.285714  0.142857    0.00680272  14 t-inv F
 -0.333333 -0.285714  0.142857    0.00680272  14 t-inv F
  0.333333  0.285714 -0.142857    0.00680272  14 t-inv F
  0.000000 -0.428571 -0.142857    0.00680272  15 t-inv F
  0.000000  0.428571 -0.142857    0.00680272  15 t-inv F
  0.000000 -0.428571  0.142857    0.00680272  15 t-inv F
 -0.333333 -0.428571 -0.142857    0.00680272  16 t-inv F
  0.333333 -0.428571 -0.142857    0.00680272  16 t-inv F
 -0.333333  0.428571  0.142857    0.00680272  16 t-inv F
 -0.333333  0.428571 -0.142857    0.00680272  16 t-inv F
  0.333333 -0.428571  0.142857    0.00680272  16 t-inv F
 -0.333333 -0.428571  0.142857    0.00680272  16 t-inv F
  0.333333  0.428571 -0.142857    0.00680272  16 t-inv F
  0.000000  0.000000 -0.285714    0.00680272  17 t-inv F
 -0.333333  0.000000 -0.285714    0.00680272  18 t-inv F
  0.333333  0.000000 -0.285714    0.00680272  18 t-inv F
 -0.333333  0.000000  0.285714    0.00680272  18 t-inv F
  0.000000 -0.142857 -0.285714    0.00680272  19 t-inv F
  0.000000  0.142857 -0.285714    0.00680272  19 t-inv F
  0.000000 -0.142857  0.285714    0.00680272  19 t-inv F
 -0.333333 -0.142857 -0.285714    0.00680272  20 t-inv F
  0.333333 -0.142857 -0.285714    0.00680272  20 t-inv F
 -0.333333  0.142857  0.285714    0.00680272  20 t-inv F
 -0.333333  0.142857 -0.285714    0.00680272  20 t-inv F
  0.333333 -0.142857  0.285714    0.00680272  20 t-inv F
 -0.333333 -0.142857  0.285714    0.00680272  20 t-inv F
  0.333333  0.142857 -0.285714    0.00680272  20 t-inv F
  0.000000 -0.285714 -0.285714    0.00680272  21 t-inv F
  0.000000  0.285714 -0.285714    0.00680272  21 t-inv F
  0.000000 -0.285714  0.285714    0.00680272  21 t-inv F
 -0.333333 -0.285714 -0.285714    0.00680272  22 t-inv F
  0.333333 -0.285714 -0.285714    0.00680272  22 t-inv F
 -0.333333  0.285714  0.285714    0.00680272  22 t-inv F
 -0.333333  0.285714 -0.285714    0.00680272  22 t-inv F
  0.333333 -0.285714  0.285714    0.00680272  22 t-inv F
 -0.333333 -0.285714  0.285714    0.00680272  22 t-inv F
  0.333333  0.285714 -0.285714    0.00680272  22 t-inv F
  0.000000 -0.428571 -0.285714    0.00680272  23 t-inv F
  0.000000  0.428571 -0.285714    0.00680272  23 t-inv F
  0.000000 -0.428571  0.285714    0.00680272  23 t-inv F
 -0.333333 -0.428571 -0.285714    0.00680272  24 t-inv F
  0.333333 -0.428571 -0.285714    0.00680272  24 t-inv F
 -0.333333  0.428571  0.285714    0.00680272  24 t-inv F
 -0.333333  0.428571 -0.285714    0.00680272  24 t-inv F
  0.333333 -0.428571  0.285714    0.00680272  24 t-inv F
 -0.333333 -0.428571  0.285714    0.00680272  24 t-inv F
  0.333333  0.428571 -0.285714    0.00680272  24 t-inv F
  0.000000  0.000000 -0.428571    0.00680272  25 t-inv F
 -0.333333  0.000000 -0.428571    0.00680272  26 t-inv F
  0.333333  0.000000 -0.428571    0.00680272  26 t-inv F
 -0.333333  0.000000  0.428571    0.00680272  26 t-inv F
  0.000000 -0.142857 -0.428571    0.00680272  27 t-inv F
  0.000000  0.142857 -0.428571    0.00680272  27 t-inv F
  0.000000 -0.142857  0.428571    0.00680272  27 t-inv F
 -0.333333 -0.142857 -0.428571    0.00680272  28 t-inv F
  0.333333 -0.142857 -0.428571    0.00680272  28 t-inv F
 -0.333333  0.142857  0.428571    0.00680272  28 t-inv F
 -0.333333  0.142857 -0.428571    0.00680272  28 t-inv F
  0.333333 -0.142857  0.428571    0.00680272  28 t-inv F
 -0.333333 -0.142857  0.428571    0.00680272  28 t-inv F
  0.333333  0.142857 -0.428571    0.00680272  28 t-inv F
  0.000000 -0.285714 -0.428571    0.00680272  29 t-inv F
  0.000000  0.285714 -0.428571    0.00680272  29 t-inv F
  0.000000 -0.285714  0.428571    0.00680272  29 t-inv F
 -0.333333 -0.285714 -0.428571    0.00680272  30 t-inv F
  0.333333 -0.285714 -0.428571    0.00680272  30 t-inv F
 -0.333333  0.285714  0.428571    0.00680272  30 t-inv F
 -0.333333  0.285714 -0.428571    0.00680272  30 t-inv F
  0.333333 -0.285714  0.428571    0.00680272  30 t-inv F
 -0.333333 -0.285714  0.428571    0.00680272  30 t-inv F
  0.333333  0.285714 -0.428571    0.00680272  30 t-inv F
  0.000000 -0.428571 -0.428571    0.00680272  31 t-inv F
  0.000000  0.428571 -0.428571    0.00680272  31 t-inv F
  0.000000 -0.428571  0.428571    0.00680272  31 t-inv F
 -0.333333 -0.428571 -0.428571    0.00680272  32 t-inv F
  0.333333 -0.428571 -0.428571    0.00680272  32 t-inv F
 -0.333333  0.428571  0.428571    0.00680272  32 t-inv F
 -0.333333  0.428571 -0.428571    0.00680272  32 t-inv F
  0.333333 -0.428571  0.428571    0.00680272  32 t-inv F
 -0.333333 -0.428571  0.428571    0.00680272  32 t-inv F
  0.333333  0.428571 -0.428571    0.00680272  32 t-inv F


--------------------------------------------------------------------------------------------------------




 Dimension of arrays:
   k-points           NKPTS =    180   k-points in BZ     NKDIM =    295   number of bands    NBANDS=     48
   number of dos      NEDOS =    301   number of ions     NIONS =      8
   non local maximal  LDIM  =      6   non local SUM 2l+1 LMDIM =     18
   total plane-waves  NPLWV = 127008
   max r-space proj   IRMAX =      1   max aug-charges    IRDMAX= 208808
   dimension x,y,z NGX =    98 NGY =   36 NGZ =   36
   dimension x,y,z NGXF=   196 NGYF=   72 NGZF=   72
   support grid    NGXF=   392 NGYF=  144 NGZF=  144
   ions per type =               4   4
 NGX,Y,Z   is equivalent  to a cutoff of  12.40, 12.87, 12.91 a.u.
 NGXF,Y,Z  is equivalent  to a cutoff of  24.80, 25.73, 25.83 a.u.


 I would recommend the setting:
   dimension x,y,z NGX =    98 NGY =   35 NGZ =   34
 SYSTEM =  band                                    
 POSCAR =  Primitive Cell                          

 Startparameter for this run:
   NWRITE =      2    write-flag & timer
   PREC   = accura    normal or accurate (medium, high low for compatibility)
   ISTART =      1    job   : 0-new  1-cont  2-samecut
   ICHARG =      1    charge: 1-file 2-atom 10-const
   ISPIN  =      1    spin polarized calculation?
   LNONCOLLINEAR =      F non collinear calculations
   LSORBIT =      F    spin-orbit coupling
   INIWAV =      1    electr: 0-lowe 1-rand  2-diag
   LASPH  =      F    aspherical Exc in radial PAW
   METAGGA=      F    non-selfconsistent MetaGGA calc.

 Electronic Relaxation 1
   ENCUT  =  520.0 eV  38.22 Ry    6.18 a.u.  24.43  8.65  8.62*2*pi/ulx,y,z
   ENINI  =  520.0     initial cutoff
   ENAUG  =  391.9 eV  augmentation charge cutoff
   NELM   =    140;   NELMIN=  6; NELMDL=  0     # of ELM steps 
   EDIFF  = 0.1E-03   stopping-criterion for ELM
   LREAL  =      F    real-space projection
   NLSPLINE    = F    spline interpolate recip. space projectors
   LCOMPAT=      F    compatible to vasp.4.4
   GGA_COMPAT  = T    GGA compatible to vasp.4.4-vasp.4.6
   LMAXPAW     = -100 max onsite density
   LMAXMIX     =    2 max onsite mixed and CHGCAR
   VOSKOWN=      0    Vosko Wilk Nusair interpolation
   ROPT   =    0.00000   0.00000
 Ionic relaxation
   EDIFFG = -.1E-01   stopping-criterion for IOM
   NSW    =      0    number of steps for IOM
   NBLOCK =      1;   KBLOCK =      1    inner block; outer block 
   IBRION =     -1    ionic relax: 0-MD 1-quasi-New 2-CG
   NFREE  =      0    steps in history (QN), initial steepest desc. (CG)
   ISIF   =      2    stress and relaxation
   IWAVPR =     10    prediction:  0-non 1-charg 2-wave 3-comb
   ISYM   =      3    0-nonsym 1-usesym 2-fastsym
   LCORR  =      T    Harris-Foulkes like correction to forces

   POTIM  = 0.0500    time-step for ionic-motion
   TEIN   =    0.0    initial temperature
   TEBEG  =    0.0;   TEEND  =   0.0 temperature during run
   SMASS  =  -3.00    Nose mass-parameter (am)
   estimated Nose-frequenzy (Omega)   =  0.10E-29 period in steps =****** mass=  -0.395E-26a.u.
   SCALEE = 1.0000    scale energy and forces
   NPACO  =    256;   APACO  = 16.0  distance and # of slots for P.C.
   PSTRESS=    0.0 pullay stress

  Mass of Ions in am
   POMASS = 127.60207.20
  Ionic Valenz
   ZVAL   =   6.00 14.00
  Atomic Wigner-Seitz radii
   RWIGS  =  -1.00 -1.00
  virtual crystal weights 
   VCA    =   1.00  1.00
   NELECT =      80.0000    total number of electrons
   NUPDOWN=      -1.0000    fix difference up-down

 DOS related values:
   EMIN   =  10.00;   EMAX   =-10.00  energy-range for DOS
   EFERMI =   0.00
   ISMEAR =     0;   SIGMA  =   0.05  broadening in eV -4-tet -1-fermi 0-gaus

 Electronic relaxation 2 (details)
   IALGO  =     53    algorithm
   LDIAG  =      T    sub-space diagonalisation (order eigenvalues)
   LSUBROT=      F    optimize rotation matrix (better conditioning)
   TURBO    =      0    0=normal 1=particle mesh
   IRESTART =      0    0=no restart 2=restart with 2 vectors
   NREBOOT  =      0    no. of reboots
   NMIN     =      0    reboot dimension
   EREF     =   0.00    reference energy to select bands
   IMIX   =      4    mixing-type and parameters
     AMIX     =   0.10;   BMIX     =  1.20
     AMIX_MAG =   0.40;   BMIX_MAG =  1.20
     AMIN     =   0.10
     WC   =   100.;   INIMIX=   1;  MIXPRE=   1;  MAXMIX= -45

 Intra band minimization:
   WEIMIN = 0.0000     energy-eigenvalue tresh-hold
   EBREAK =  0.52E-06  absolut break condition
   DEPER  =   0.30     relativ break condition  

   TIME   =   0.40     timestep for ELM

  volume/ion in A,a.u.               =      35.41       238.94
  Fermi-wavevector in a.u.,A,eV,Ry     =   1.074097  2.029750 15.696839  1.153685
  Thomas-Fermi vector in A             =   2.209916
 
 Write flags
   LWAVE  =      F    write WAVECAR
   LCHARG =      F    write CHGCAR
   LVTOT  =      F    write LOCPOT, total local potential
   LVHAR  =      F    write LOCPOT, Hartree potential only
   LELF   =      F    write electronic localiz. function (ELF)
   LORBIT =     11    0 simple, 1 ext, 2 COOP (PROOUT)


 Dipole corrections
   LMONO  =      F    monopole corrections only (constant potential shift)
   LDIPOL =      F    correct potential (dipole corrections)
   IDIPOL =      0    1-x, 2-y, 3-z, 4-all directions 
   EPSILON=  1.0000000 bulk dielectric constant

 Exchange correlation treatment:
   GGA     =    --    GGA type
   LEXCH   =     8    internal setting for exchange type
   VOSKOWN=      0    Vosko Wilk Nusair interpolation
   EXXOEP  =     0    0=HF, 1=EXX-LHF (local Hartree Fock) 2=EXX OEP
   LHFCALC =     T    Hartree Fock is set to
   LSYMGRAD=     F    symmetrize gradient (conserves proper symmetry)
   PRECFOCK=normal    Normal, Fast or Accurate (Low or Medium for compatibility)
   LRHFCALC=     F    long range Hartree Fock
   LRSCOR  =     F    long range correlation only (use DFT for short range part)
   LTHOMAS =     F    Thomas Fermi screening in HF
   LMODELHF=     F    short range full HF, long range fraction AEXX
   ENCUT4O =  -1.0   cutoff for four orbital integrals eV
   LMAXFOCK=     4    L truncation for augmentation on plane wave grid
   LMAXFOCKAE=  -1    L truncation for all-electron charge restoration on plane wave grid
   NMAXFOCKAE=   1    number of basis functions for all-electron charge restoration
   LFOCKAEDFT=     F  apply the AE augmentation even for DFT
   NKREDX  =     1    reduce k-point grid by
   NKREDY  =     1    reduce k-point grid by
   NKREDZ  =     1    reduce k-point grid by
   SHIFTRED=     F    shift reduced grid of Gamma
   HFKIDENT=     F    idential grid for each k-point
   ODDONLY =     F    use only odd q-grid points
   EVENONLY=     F    use only even q-grid points
   HFALPHA =   -1.0000 decay constant for conv. correction
   MCALPHA =    0.0000 extent of test-charge in conv. correction in multipole expansion
   AEXX    =    0.2500 exact exchange contribution
   HFSCREEN=    0.2000 screening length (either q_TF or 0.3 A-1)
   HFSCREENC=   0.2000 screening length for correlation (either q_TF or 0.3 A-1)
   HFRCUT  =    0.0000 spherical cutoff for potential kernel
   ALDAX   =    0.7500 LDA exchange part
   AGGAX   =    0.7500 GGA exchange part
   ALDAC   =    1.0000 LDA correlation
   AGGAC   =    1.0000 GGA correlation
   NBANDSGWLOW=     1    first orbital included in HF term
   ENCUTFOCK=  -1.0 apply spherical cutoff to Coloumb kernel
 Linear response parameters
   LEPSILON=     F    determine dielectric tensor
   LRPA    =     F    only Hartree local field effects (RPA)
   LNABLA  =     F    use nabla operator in PAW spheres
   LVEL    =     F    velocity operator in full k-point grid
   LINTERFAST=   F  fast interpolation
   KINTER  =     0    interpolate to denser k-point grid
   CSHIFT  =0.1000    complex shift for real part using Kramers Kronig
   OMEGAMAX=  -1.0    maximum frequency
   DEG_THRESHOLD= 0.2000000E-02 threshold for treating states as degnerate
   RTIME   =    0.100 relaxation time in fs

 Orbital magnetization related:
   ORBITALMAG=     F  switch on orbital magnetization
   LCHIMAG   =     F  perturbation theory with respect to B field
   DQ        =  0.001000  dq finite difference perturbation B field



--------------------------------------------------------------------------------------------------------


 Static calculation
 charge density and potential will be updated during run
 non-spin polarized calculation
 Conjugate gradient for all bands (Freysoldt, et al. PRB 79, 241103 (2009))
 perform sub-space diagonalisation
    before iterative eigenvector-optimisation
 modified Broyden-mixing scheme, WC =      100.0
 initial mixing is a Kerker type mixing with AMIX =  0.1000 and BMIX =      1.2000
 Hartree-type preconditioning will be used
 using additional bands            8
 reciprocal scheme for non local part
 use partial core corrections
 no Harris-corrections to forces 
 use gradient corrections 
 use of overlap-Matrix (Vanderbilt PP)
 Gauss-broadening in eV      SIGMA  =   0.05


--------------------------------------------------------------------------------------------------------


  energy-cutoff  :      520.00
  volume of cell :      283.26
      direct lattice vectors                 reciprocal lattice vectors
    13.139452401  0.000000000  0.000000000     0.076106672  0.000000000  0.000000000
     0.000000000  4.652005925  0.000000000     0.000000000  0.214961033  0.000000000
     0.000000000  0.000000000  4.634106391     0.000000000  0.000000000  0.215791334

  length of vectors
    13.139452401  4.652005925  4.634106391     0.076106672  0.214961033  0.215791334


 
 old parameters found on file WAVECAR:
  energy-cutoff  :      520.00
  volume of cell :      283.26
      direct lattice vectors                 reciprocal lattice vectors
    13.139452401  0.000000000  0.000000000     0.076106672  0.000000000  0.000000000
     0.000000000  4.652005925  0.000000000     0.000000000  0.214961033  0.000000000
     0.000000000  0.000000000  4.634106391     0.000000000  0.000000000  0.215791334

  length of vectors

 
 k-points in units of 2pi/SCALE and weight: 0.030   3   7   7   32  0.040  148   12 
   0.00000000  0.00000000  0.00000000       0.007
   0.02536889  0.00000000  0.00000000       0.014
   0.00000000  0.03070872  0.00000000       0.014
   0.02536889  0.03070872  0.00000000       0.027
   0.00000000  0.06141744  0.00000000       0.014
   0.02536889  0.06141744  0.00000000       0.027
   0.00000000  0.09212616  0.00000000       0.014
   0.02536889  0.09212616  0.00000000       0.027
   0.00000000  0.00000000  0.03082733       0.014
   0.02536889  0.00000000  0.03082733       0.027
   0.00000000  0.03070872  0.03082733       0.027
   0.02536889  0.03070872  0.03082733       0.054
   0.00000000  0.06141744  0.03082733       0.027
   0.02536889  0.06141744  0.03082733       0.054
   0.00000000  0.09212616  0.03082733       0.027
   0.02536889  0.09212616  0.03082733       0.054
   0.00000000  0.00000000  0.06165467       0.014
   0.02536889  0.00000000  0.06165467       0.027
   0.00000000  0.03070872  0.06165467       0.027
   0.02536889  0.03070872  0.06165467       0.054
   0.00000000  0.06141744  0.06165467       0.027
   0.02536889  0.06141744  0.06165467       0.054
   0.00000000  0.09212616  0.06165467       0.027
   0.02536889  0.09212616  0.06165467       0.054
   0.00000000  0.00000000  0.09248200       0.014
   0.02536889  0.00000000  0.09248200       0.027
   0.00000000  0.03070872  0.09248200       0.027
   0.02536889  0.03070872  0.09248200       0.054
   0.00000000  0.06141744  0.09248200       0.027
   0.02536889  0.06141744  0.09248200       0.054
   0.00000000  0.09212616  0.09248200       0.027
   0.02536889  0.09212616  0.09248200       0.054
   0.00000000  0.00000000  0.00000000       0.000
   0.00951333  0.00000000  0.00000000       0.000
   0.01902667  0.00000000  0.00000000       0.000
   0.02854000  0.00000000  0.00000000       0.000
   0.03805334  0.00000000  0.00000000       0.000
   0.03805334  0.00000000  0.00000000       0.000
   0.03805334  0.00716537  0.00000000       0.000
   0.03805334  0.01433074  0.00000000       0.000
   0.03805334  0.02149610  0.00000000       0.000
   0.03805334  0.02866147  0.00000000       0.000
   0.03805334  0.03582684  0.00000000       0.000
   0.03805334  0.04299221  0.00000000       0.000
   0.03805334  0.05015757  0.00000000       0.000
   0.03805334  0.05732294  0.00000000       0.000
   0.03805334  0.06448831  0.00000000       0.000
   0.03805334  0.07165368  0.00000000       0.000
   0.03805334  0.07881905  0.00000000       0.000
   0.03805334  0.08598441  0.00000000       0.000
   0.03805334  0.09314978  0.00000000       0.000
   0.03805334  0.10031515  0.00000000       0.000
   0.03805334  0.10748052  0.00000000       0.000
   0.03805334  0.10748052  0.00000000       0.000
   0.02854000  0.10748052  0.00000000       0.000
   0.01902667  0.10748052  0.00000000       0.000
   0.00951333  0.10748052  0.00000000       0.000
   0.00000000  0.10748052  0.00000000       0.000
   0.00000000  0.10748052  0.00000000       0.000
   0.00000000  0.10031515  0.00000000       0.000
   0.00000000  0.09314978  0.00000000       0.000
   0.00000000  0.08598441  0.00000000       0.000
   0.00000000  0.07881905  0.00000000       0.000
   0.00000000  0.07165368  0.00000000       0.000
   0.00000000  0.06448831  0.00000000       0.000
   0.00000000  0.05732294  0.00000000       0.000
   0.00000000  0.05015757  0.00000000       0.000
   0.00000000  0.04299221  0.00000000       0.000
   0.00000000  0.03582684  0.00000000       0.000
   0.00000000  0.02866147  0.00000000       0.000
   0.00000000  0.02149610  0.00000000       0.000
   0.00000000  0.01433074  0.00000000       0.000
   0.00000000  0.00716537  0.00000000       0.000
   0.00000000  0.00000000  0.00000000       0.000
   0.00000000  0.00000000  0.00000000       0.000
   0.00000000  0.00000000  0.00719304       0.000
   0.00000000  0.00000000  0.01438609       0.000
   0.00000000  0.00000000  0.02157913       0.000
   0.00000000  0.00000000  0.02877218       0.000
   0.00000000  0.00000000  0.03596522       0.000
   0.00000000  0.00000000  0.04315827       0.000
   0.00000000  0.00000000  0.05035131       0.000
   0.00000000  0.00000000  0.05754436       0.000
   0.00000000  0.00000000  0.06473740       0.000
   0.00000000  0.00000000  0.07193044       0.000
   0.00000000  0.00000000  0.07912349       0.000
   0.00000000  0.00000000  0.08631653       0.000
   0.00000000  0.00000000  0.09350958       0.000
   0.00000000  0.00000000  0.10070262       0.000
   0.00000000  0.00000000  0.10789567       0.000
   0.00000000  0.00000000  0.10789567       0.000
   0.00951333  0.00000000  0.10789567       0.000
   0.01902667  0.00000000  0.10789567       0.000
   0.02854000  0.00000000  0.10789567       0.000
   0.03805334  0.00000000  0.10789567       0.000
   0.03805334  0.00000000  0.10789567       0.000
   0.03805334  0.00716537  0.10789567       0.000
   0.03805334  0.01433074  0.10789567       0.000
   0.03805334  0.02149610  0.10789567       0.000
   0.03805334  0.02866147  0.10789567       0.000
   0.03805334  0.03582684  0.10789567       0.000
   0.03805334  0.04299221  0.10789567       0.000
   0.03805334  0.05015757  0.10789567       0.000
   0.03805334  0.05732294  0.10789567       0.000
   0.03805334  0.06448831  0.10789567       0.000
   0.03805334  0.07165368  0.10789567       0.000
   0.03805334  0.07881905  0.10789567       0.000
   0.03805334  0.08598441  0.10789567       0.000
   0.03805334  0.09314978  0.10789567       0.000
   0.03805334  0.10031515  0.10789567       0.000
   0.03805334  0.10748052  0.10789567       0.000
   0.03805334  0.10748052  0.10789567       0.000
   0.02854000  0.10748052  0.10789567       0.000
   0.01902667  0.10748052  0.10789567       0.000
   0.00951333  0.10748052  0.10789567       0.000
   0.00000000  0.10748052  0.10789567       0.000
   0.00000000  0.10748052  0.10789567       0.000
   0.00000000  0.10031515  0.10789567       0.000
   0.00000000  0.09314978  0.10789567       0.000
   0.00000000  0.08598441  0.10789567       0.000
   0.00000000  0.07881905  0.10789567       0.000
   0.00000000  0.07165368  0.10789567       0.000
   0.00000000  0.06448831  0.10789567       0.000
   0.00000000  0.05732294  0.10789567       0.000
   0.00000000  0.05015757  0.10789567       0.000
   0.00000000  0.04299221  0.10789567       0.000
   0.00000000  0.03582684  0.10789567       0.000
   0.00000000  0.02866147  0.10789567       0.000
   0.00000000  0.02149610  0.10789567       0.000
   0.00000000  0.01433074  0.10789567       0.000
   0.00000000  0.00716537  0.10789567       0.000
   0.00000000  0.00000000  0.10789567       0.000
   0.03805334  0.00000000  0.00000000       0.000
   0.03805334  0.00000000  0.00719304       0.000
   0.03805334  0.00000000  0.01438609       0.000
   0.03805334  0.00000000  0.02157913       0.000
   0.03805334  0.00000000  0.02877218       0.000
   0.03805334  0.00000000  0.03596522       0.000
   0.03805334  0.00000000  0.04315827       0.000
   0.03805334  0.00000000  0.05035131       0.000
   0.03805334  0.00000000  0.05754436       0.000
   0.03805334  0.00000000  0.06473740       0.000
   0.03805334  0.00000000  0.07193044       0.000
   0.03805334  0.00000000  0.07912349       0.000
   0.03805334  0.00000000  0.08631653       0.000
   0.03805334  0.00000000  0.09350958       0.000
   0.03805334  0.00000000  0.10070262       0.000
   0.03805334  0.00000000  0.10789567       0.000
   0.00000000  0.10748052  0.00000000       0.000
   0.00000000  0.10748052  0.00719304       0.000
   0.00000000  0.10748052  0.01438609       0.000
   0.00000000  0.10748052  0.02157913       0.000
   0.00000000  0.10748052  0.02877218       0.000
   0.00000000  0.10748052  0.03596522       0.000
   0.00000000  0.10748052  0.04315827       0.000
   0.00000000  0.10748052  0.05035131       0.000
   0.00000000  0.10748052  0.05754436       0.000
   0.00000000  0.10748052  0.06473740       0.000
   0.00000000  0.10748052  0.07193044       0.000
   0.00000000  0.10748052  0.07912349       0.000
   0.00000000  0.10748052  0.08631653       0.000
   0.00000000  0.10748052  0.09350958       0.000
   0.00000000  0.10748052  0.10070262       0.000
   0.00000000  0.10748052  0.10789567       0.000
   0.03805334  0.10748052  0.00000000       0.000
   0.03805334  0.10748052  0.00719304       0.000
   0.03805334  0.10748052  0.01438609       0.000
   0.03805334  0.10748052  0.02157913       0.000
   0.03805334  0.10748052  0.02877218       0.000
   0.03805334  0.10748052  0.03596522       0.000
   0.03805334  0.10748052  0.04315827       0.000
   0.03805334  0.10748052  0.05035131       0.000
   0.03805334  0.10748052  0.05754436       0.000
   0.03805334  0.10748052  0.06473740       0.000
   0.03805334  0.10748052  0.07193044       0.000
   0.03805334  0.10748052  0.07912349       0.000
   0.03805334  0.10748052  0.08631653       0.000
   0.03805334  0.10748052  0.09350958       0.000
   0.03805334  0.10748052  0.10070262       0.000
   0.03805334  0.10748052  0.10789567       0.000
 
 k-points in reciprocal lattice and weights: 0.030   3   7   7   32  0.040  148   12 
   0.00000000  0.00000000  0.00000000       0.007
   0.33333333  0.00000000  0.00000000       0.014
   0.00000000  0.14285714  0.00000000       0.014
   0.33333333  0.14285714  0.00000000       0.027
   0.00000000  0.28571429  0.00000000       0.014
   0.33333333  0.28571429  0.00000000       0.027
   0.00000000  0.42857143  0.00000000       0.014
   0.33333333  0.42857143  0.00000000       0.027
   0.00000000  0.00000000  0.14285714       0.014
   0.33333333  0.00000000  0.14285714       0.027
   0.00000000  0.14285714  0.14285714       0.027
   0.33333333  0.14285714  0.14285714       0.054
   0.00000000  0.28571429  0.14285714       0.027
   0.33333333  0.28571429  0.14285714       0.054
   0.00000000  0.42857143  0.14285714       0.027
   0.33333333  0.42857143  0.14285714       0.054
   0.00000000  0.00000000  0.28571429       0.014
   0.33333333  0.00000000  0.28571429       0.027
   0.00000000  0.14285714  0.28571429       0.027
   0.33333333  0.14285714  0.28571429       0.054
   0.00000000  0.28571429  0.28571429       0.027
   0.33333333  0.28571429  0.28571429       0.054
   0.00000000  0.42857143  0.28571429       0.027
   0.33333333  0.42857143  0.28571429       0.054
   0.00000000  0.00000000  0.42857143       0.014
   0.33333333  0.00000000  0.42857143       0.027
   0.00000000  0.14285714  0.42857143       0.027
   0.33333333  0.14285714  0.42857143       0.054
   0.00000000  0.28571429  0.42857143       0.027
   0.33333333  0.28571429  0.42857143       0.054
   0.00000000  0.42857143  0.42857143       0.027
   0.33333333  0.42857143  0.42857143       0.054
   0.00000000  0.00000000  0.00000000       0.000
   0.12500000  0.00000000  0.00000000       0.000
   0.25000000  0.00000000  0.00000000       0.000
   0.37500000  0.00000000  0.00000000       0.000
   0.50000000  0.00000000  0.00000000       0.000
   0.50000000  0.00000000  0.00000000       0.000
   0.50000000  0.03333333  0.00000000       0.000
   0.50000000  0.06666667  0.00000000       0.000
   0.50000000  0.10000000  0.00000000       0.000
   0.50000000  0.13333333  0.00000000       0.000
   0.50000000  0.16666667  0.00000000       0.000
   0.50000000  0.20000000  0.00000000       0.000
   0.50000000  0.23333333  0.00000000       0.000
   0.50000000  0.26666667  0.00000000       0.000
   0.50000000  0.30000000  0.00000000       0.000
   0.50000000  0.33333333  0.00000000       0.000
   0.50000000  0.36666667  0.00000000       0.000
   0.50000000  0.40000000  0.00000000       0.000
   0.50000000  0.43333333  0.00000000       0.000
   0.50000000  0.46666667  0.00000000       0.000
   0.50000000  0.50000000  0.00000000       0.000
   0.50000000  0.50000000  0.00000000       0.000
   0.37500000  0.50000000  0.00000000       0.000
   0.25000000  0.50000000  0.00000000       0.000
   0.12500000  0.50000000  0.00000000       0.000
   0.00000000  0.50000000  0.00000000       0.000
   0.00000000  0.50000000  0.00000000       0.000
   0.00000000  0.46666667  0.00000000       0.000
   0.00000000  0.43333333  0.00000000       0.000
   0.00000000  0.40000000  0.00000000       0.000
   0.00000000  0.36666667  0.00000000       0.000
   0.00000000  0.33333333  0.00000000       0.000
   0.00000000  0.30000000  0.00000000       0.000
   0.00000000  0.26666667  0.00000000       0.000
   0.00000000  0.23333333  0.00000000       0.000
   0.00000000  0.20000000  0.00000000       0.000
   0.00000000  0.16666667  0.00000000       0.000
   0.00000000  0.13333333  0.00000000       0.000
   0.00000000  0.10000000  0.00000000       0.000
   0.00000000  0.06666667  0.00000000       0.000
   0.00000000  0.03333333  0.00000000       0.000
   0.00000000  0.00000000  0.00000000       0.000
   0.00000000  0.00000000  0.00000000       0.000
   0.00000000  0.00000000  0.03333333       0.000
   0.00000000  0.00000000  0.06666667       0.000
   0.00000000  0.00000000  0.10000000       0.000
   0.00000000  0.00000000  0.13333333       0.000
   0.00000000  0.00000000  0.16666667       0.000
   0.00000000  0.00000000  0.20000000       0.000
   0.00000000  0.00000000  0.23333333       0.000
   0.00000000  0.00000000  0.26666667       0.000
   0.00000000  0.00000000  0.30000000       0.000
   0.00000000  0.00000000  0.33333333       0.000
   0.00000000  0.00000000  0.36666667       0.000
   0.00000000  0.00000000  0.40000000       0.000
   0.00000000  0.00000000  0.43333333       0.000
   0.00000000  0.00000000  0.46666667       0.000
   0.00000000  0.00000000  0.50000000       0.000
   0.00000000  0.00000000  0.50000000       0.000
   0.12500000  0.00000000  0.50000000       0.000
   0.25000000  0.00000000  0.50000000       0.000
   0.37500000  0.00000000  0.50000000       0.000
   0.50000000  0.00000000  0.50000000       0.000
   0.50000000  0.00000000  0.50000000       0.000
   0.50000000  0.03333333  0.50000000       0.000
   0.50000000  0.06666667  0.50000000       0.000
   0.50000000  0.10000000  0.50000000       0.000
   0.50000000  0.13333333  0.50000000       0.000
   0.50000000  0.16666667  0.50000000       0.000
   0.50000000  0.20000000  0.50000000       0.000
   0.50000000  0.23333333  0.50000000       0.000
   0.50000000  0.26666667  0.50000000       0.000
   0.50000000  0.30000000  0.50000000       0.000
   0.50000000  0.33333333  0.50000000       0.000
   0.50000000  0.36666667  0.50000000       0.000
   0.50000000  0.40000000  0.50000000       0.000
   0.50000000  0.43333333  0.50000000       0.000
   0.50000000  0.46666667  0.50000000       0.000
   0.50000000  0.50000000  0.50000000       0.000
   0.50000000  0.50000000  0.50000000       0.000
   0.37500000  0.50000000  0.50000000       0.000
   0.25000000  0.50000000  0.50000000       0.000
   0.12500000  0.50000000  0.50000000       0.000
   0.00000000  0.50000000  0.50000000       0.000
   0.00000000  0.50000000  0.50000000       0.000
   0.00000000  0.46666667  0.50000000       0.000
   0.00000000  0.43333333  0.50000000       0.000
   0.00000000  0.40000000  0.50000000       0.000
   0.00000000  0.36666667  0.50000000       0.000
   0.00000000  0.33333333  0.50000000       0.000
   0.00000000  0.30000000  0.50000000       0.000
   0.00000000  0.26666667  0.50000000       0.000
   0.00000000  0.23333333  0.50000000       0.000
   0.00000000  0.20000000  0.50000000       0.000
   0.00000000  0.16666667  0.50000000       0.000
   0.00000000  0.13333333  0.50000000       0.000
   0.00000000  0.10000000  0.50000000       0.000
   0.00000000  0.06666667  0.50000000       0.000
   0.00000000  0.03333333  0.50000000       0.000
   0.00000000  0.00000000  0.50000000       0.000
   0.50000000  0.00000000  0.00000000       0.000
   0.50000000  0.00000000  0.03333333       0.000
   0.50000000  0.00000000  0.06666667       0.000
   0.50000000  0.00000000  0.10000000       0.000
   0.50000000  0.00000000  0.13333333       0.000
   0.50000000  0.00000000  0.16666667       0.000
   0.50000000  0.00000000  0.20000000       0.000
   0.50000000  0.00000000  0.23333333       0.000
   0.50000000  0.00000000  0.26666667       0.000
   0.50000000  0.00000000  0.30000000       0.000
   0.50000000  0.00000000  0.33333333       0.000
   0.50000000  0.00000000  0.36666667       0.000
   0.50000000  0.00000000  0.40000000       0.000
   0.50000000  0.00000000  0.43333333       0.000
   0.50000000  0.00000000  0.46666667       0.000
   0.50000000  0.00000000  0.50000000       0.000
   0.00000000  0.50000000  0.00000000       0.000
   0.00000000  0.50000000  0.03333333       0.000
   0.00000000  0.50000000  0.06666667       0.000
   0.00000000  0.50000000  0.10000000       0.000
   0.00000000  0.50000000  0.13333333       0.000
   0.00000000  0.50000000  0.16666667       0.000
   0.00000000  0.50000000  0.20000000       0.000
   0.00000000  0.50000000  0.23333333       0.000
   0.00000000  0.50000000  0.26666667       0.000
   0.00000000  0.50000000  0.30000000       0.000
   0.00000000  0.50000000  0.33333333       0.000
   0.00000000  0.50000000  0.36666667       0.000
   0.00000000  0.50000000  0.40000000       0.000
   0.00000000  0.50000000  0.43333333       0.000
   0.00000000  0.50000000  0.46666667       0.000
   0.00000000  0.50000000  0.50000000       0.000
   0.50000000  0.50000000  0.00000000       0.000
   0.50000000  0.50000000  0.03333333       0.000
   0.50000000  0.50000000  0.06666667       0.000
   0.50000000  0.50000000  0.10000000       0.000
   0.50000000  0.50000000  0.13333333       0.000
   0.50000000  0.50000000  0.16666667       0.000
   0.50000000  0.50000000  0.20000000       0.000
   0.50000000  0.50000000  0.23333333       0.000
   0.50000000  0.50000000  0.26666667       0.000
   0.50000000  0.50000000  0.30000000       0.000
   0.50000000  0.50000000  0.33333333       0.000
   0.50000000  0.50000000  0.36666667       0.000
   0.50000000  0.50000000  0.40000000       0.000
   0.50000000  0.50000000  0.43333333       0.000
   0.50000000  0.50000000  0.46666667       0.000
   0.50000000  0.50000000  0.50000000       0.000
 
 position of ions in fractional coordinates (direct lattice) 
   0.87503084  0.75000000  0.74941760
   0.37503084  0.75000000  0.75058240
   0.12496916  0.25000000  0.25058240
   0.62496916  0.25000000  0.24941760
   0.62512050  0.75000000  0.74785270
   0.12512050  0.75000000  0.75214730
   0.37487950  0.25000000  0.25214730
   0.87487950  0.25000000  0.24785270
 
 position of ions in cartesian coordinates  (Angst):
  11.49742613  3.48900444  3.47288090
   4.92769993  3.48900444  3.47827868
   1.64202627  1.16300148  1.16122549
   8.21175247  1.16300148  1.15582771
   8.21374103  3.48900444  3.46562897
   1.64401483  3.48900444  3.48553061
   4.92571137  1.16300148  1.16847742
  11.49543757  1.16300148  1.14857578
 


--------------------------------------------------------------------------------------------------------


 k-point  1 :   0.0000 0.0000 0.0000  plane waves:    7673
 k-point  2 :   0.3333 0.0000 0.0000  plane waves:    7663
 k-point  3 :   0.0000 0.1429 0.0000  plane waves:    7629
 k-point  4 :   0.3333 0.1429 0.0000  plane waves:    7655
 k-point  5 :   0.0000 0.2857 0.0000  plane waves:    7629
 k-point  6 :   0.3333 0.2857 0.0000  plane waves:    7636
 k-point  7 :   0.0000 0.4286 0.0000  plane waves:    7640
 k-point  8 :   0.3333 0.4286 0.0000  plane waves:    7633
 k-point  9 :   0.0000 0.0000 0.1429  plane waves:    7643
 k-point 10 :   0.3333 0.0000 0.1429  plane waves:    7653
 k-point 11 :   0.0000 0.1429 0.1429  plane waves:    7634
 k-point 12 :   0.3333 0.1429 0.1429  plane waves:    7625
 k-point 13 :   0.0000 0.2857 0.1429  plane waves:    7638
 k-point 14 :   0.3333 0.2857 0.1429  plane waves:    7636
 k-point 15 :   0.0000 0.4286 0.1429  plane waves:    7628
 k-point 16 :   0.3333 0.4286 0.1429  plane waves:    7634
 k-point 17 :   0.0000 0.0000 0.2857  plane waves:    7617
 k-point 18 :   0.3333 0.0000 0.2857  plane waves:    7631
 k-point 19 :   0.0000 0.1429 0.2857  plane waves:    7635
 k-point 20 :   0.3333 0.1429 0.2857  plane waves:    7629
 k-point 21 :   0.0000 0.2857 0.2857  plane waves:    7628
 k-point 22 :   0.3333 0.2857 0.2857  plane waves:    7621
 k-point 23 :   0.0000 0.4286 0.2857  plane waves:    7616
 k-point 24 :   0.3333 0.4286 0.2857  plane waves:    7615
 k-point 25 :   0.0000 0.0000 0.4286  plane waves:    7646
 k-point 26 :   0.3333 0.0000 0.4286  plane waves:    7624
 k-point 27 :   0.0000 0.1429 0.4286  plane waves:    7626
 k-point 28 :   0.3333 0.1429 0.4286  plane waves:    7625
 k-point 29 :   0.0000 0.2857 0.4286  plane waves:    7614
 k-point 30 :   0.3333 0.2857 0.4286  plane waves:    7613
 k-point 31 :   0.0000 0.4286 0.4286  plane waves:    7616
 k-point 32 :   0.3333 0.4286 0.4286  plane waves:    7608
 k-point 33 :   0.0000 0.0000 0.0000  plane waves:    7673
 k-point 34 :   0.1250 0.0000 0.0000  plane waves:    7659
 k-point 35 :   0.2500 0.0000 0.0000  plane waves:    7653
 k-point 36 :   0.3750 0.0000 0.0000  plane waves:    7657
 k-point 37 :   0.5000 0.0000 0.0000  plane waves:    7632
 k-point 38 :   0.5000 0.0000 0.0000  plane waves:    7632
 k-point 39 :   0.5000 0.0333 0.0000  plane waves:    7658
 k-point 40 :   0.5000 0.0667 0.0000  plane waves:    7662
 k-point 41 :   0.5000 0.1000 0.0000  plane waves:    7658
 k-point 42 :   0.5000 0.1333 0.0000  plane waves:    7658
 k-point 43 :   0.5000 0.1667 0.0000  plane waves:    7654
 k-point 44 :   0.5000 0.2000 0.0000  plane waves:    7640
 k-point 45 :   0.5000 0.2333 0.0000  plane waves:    7638
 k-point 46 :   0.5000 0.2667 0.0000  plane waves:    7630
 k-point 47 :   0.5000 0.3000 0.0000  plane waves:    7620
 k-point 48 :   0.5000 0.3333 0.0000  plane waves:    7626
 k-point 49 :   0.5000 0.3667 0.0000  plane waves:    7630
 k-point 50 :   0.5000 0.4000 0.0000  plane waves:    7624
 k-point 51 :   0.5000 0.4333 0.0000  plane waves:    7616
 k-point 52 :   0.5000 0.4667 0.0000  plane waves:    7638
 k-point 53 :   0.5000 0.5000 0.0000  plane waves:    7640
 k-point 54 :   0.5000 0.5000 0.0000  plane waves:    7640
 k-point 55 :   0.3750 0.5000 0.0000  plane waves:    7650
 k-point 56 :   0.2500 0.5000 0.0000  plane waves:    7632
 k-point 57 :   0.1250 0.5000 0.0000  plane waves:    7630
 k-point 58 :   0.0000 0.5000 0.0000  plane waves:    7654
 k-point 59 :   0.0000 0.5000 0.0000  plane waves:    7654
 k-point 60 :   0.0000 0.4667 0.0000  plane waves:    7628
 k-point 61 :   0.0000 0.4333 0.0000  plane waves:    7636
 k-point 62 :   0.0000 0.4000 0.0000  plane waves:    7632
 k-point 63 :   0.0000 0.3667 0.0000  plane waves:    7622
 k-point 64 :   0.0000 0.3333 0.0000  plane waves:    7613
 k-point 65 :   0.0000 0.3000 0.0000  plane waves:    7619
 k-point 66 :   0.0000 0.2667 0.0000  plane waves:    7619
 k-point 67 :   0.0000 0.2333 0.0000  plane waves:    7621
 k-point 68 :   0.0000 0.2000 0.0000  plane waves:    7635
 k-point 69 :   0.0000 0.1667 0.0000  plane waves:    7639
 k-point 70 :   0.0000 0.1333 0.0000  plane waves:    7633
 k-point 71 :   0.0000 0.1000 0.0000  plane waves:    7657
 k-point 72 :   0.0000 0.0667 0.0000  plane waves:    7641
 k-point 73 :   0.0000 0.0333 0.0000  plane waves:    7663
 k-point 74 :   0.0000 0.0000 0.0000  plane waves:    7673
 k-point 75 :   0.0000 0.0000 0.0000  plane waves:    7673
 k-point 76 :   0.0000 0.0000 0.0333  plane waves:    7645
 k-point 77 :   0.0000 0.0000 0.0667  plane waves:    7667
 k-point 78 :   0.0000 0.0000 0.1000  plane waves:    7651
 k-point 79 :   0.0000 0.0000 0.1333  plane waves:    7631
 k-point 80 :   0.0000 0.0000 0.1667  plane waves:    7639
 k-point 81 :   0.0000 0.0000 0.2000  plane waves:    7621
 k-point 82 :   0.0000 0.0000 0.2333  plane waves:    7631
 k-point 83 :   0.0000 0.0000 0.2667  plane waves:    7619
 k-point 84 :   0.0000 0.0000 0.3000  plane waves:    7611
 k-point 85 :   0.0000 0.0000 0.3333  plane waves:    7613
 k-point 86 :   0.0000 0.0000 0.3667  plane waves:    7609
 k-point 87 :   0.0000 0.0000 0.4000  plane waves:    7636
 k-point 88 :   0.0000 0.0000 0.4333  plane waves:    7638
 k-point 89 :   0.0000 0.0000 0.4667  plane waves:    7632
 k-point 90 :   0.0000 0.0000 0.5000  plane waves:    7662
 k-point 91 :   0.0000 0.0000 0.5000  plane waves:    7662
 k-point 92 :   0.1250 0.0000 0.5000  plane waves:    7630
 k-point 93 :   0.2500 0.0000 0.5000  plane waves:    7630
 k-point 94 :   0.3750 0.0000 0.5000  plane waves:    7632
 k-point 95 :   0.5000 0.0000 0.5000  plane waves:    7652
 k-point 96 :   0.5000 0.0000 0.5000  plane waves:    7652
 k-point 97 :   0.5000 0.0333 0.5000  plane waves:    7648
 k-point 98 :   0.5000 0.0667 0.5000  plane waves:    7656
 k-point 99 :   0.5000 0.1000 0.5000  plane waves:    7652
 k-point ** :   0.5000 0.1333 0.5000  plane waves:    7636
 k-point ** :   0.5000 0.1667 0.5000  plane waves:    7644
 k-point ** :   0.5000 0.2000 0.5000  plane waves:    7632
 k-point ** :   0.5000 0.2333 0.5000  plane waves:    7628
 k-point ** :   0.5000 0.2667 0.5000  plane waves:    7616
 k-point ** :   0.5000 0.3000 0.5000  plane waves:    7588
 k-point ** :   0.5000 0.3333 0.5000  plane waves:    7572
 k-point ** :   0.5000 0.3667 0.5000  plane waves:    7584
 k-point ** :   0.5000 0.4000 0.5000  plane waves:    7588
 k-point ** :   0.5000 0.4333 0.5000  plane waves:    7584
 k-point ** :   0.5000 0.4667 0.5000  plane waves:    7592
 k-point ** :   0.5000 0.5000 0.5000  plane waves:    7592
 k-point ** :   0.5000 0.5000 0.5000  plane waves:    7592
 k-point ** :   0.3750 0.5000 0.5000  plane waves:    7600
 k-point ** :   0.2500 0.5000 0.5000  plane waves:    7628
 k-point ** :   0.1250 0.5000 0.5000  plane waves:    7604
 k-point ** :   0.0000 0.5000 0.5000  plane waves:    7596
 k-point ** :   0.0000 0.5000 0.5000  plane waves:    7596
 k-point ** :   0.0000 0.4667 0.5000  plane waves:    7590
 k-point ** :   0.0000 0.4333 0.5000  plane waves:    7614
 k-point ** :   0.0000 0.4000 0.5000  plane waves:    7612
 k-point ** :   0.0000 0.3667 0.5000  plane waves:    7630
 k-point ** :   0.0000 0.3333 0.5000  plane waves:    7610
 k-point ** :   0.0000 0.3000 0.5000  plane waves:    7604
 k-point ** :   0.0000 0.2667 0.5000  plane waves:    7606
 k-point ** :   0.0000 0.2333 0.5000  plane waves:    7624
 k-point ** :   0.0000 0.2000 0.5000  plane waves:    7624
 k-point ** :   0.0000 0.1667 0.5000  plane waves:    7612
 k-point ** :   0.0000 0.1333 0.5000  plane waves:    7628
 k-point ** :   0.0000 0.1000 0.5000  plane waves:    7620
 k-point ** :   0.0000 0.0667 0.5000  plane waves:    7614
 k-point ** :   0.0000 0.0333 0.5000  plane waves:    7622
 k-point ** :   0.0000 0.0000 0.5000  plane waves:    7662
 k-point ** :   0.5000 0.0000 0.0000  plane waves:    7632
 k-point ** :   0.5000 0.0000 0.0333  plane waves:    7650
 k-point ** :   0.5000 0.0000 0.0667  plane waves:    7650
 k-point ** :   0.5000 0.0000 0.1000  plane waves:    7654
 k-point ** :   0.5000 0.0000 0.1333  plane waves:    7658
 k-point ** :   0.5000 0.0000 0.1667  plane waves:    7654
 k-point ** :   0.5000 0.0000 0.2000  plane waves:    7642
 k-point ** :   0.5000 0.0000 0.2333  plane waves:    7642
 k-point ** :   0.5000 0.0000 0.2667  plane waves:    7626
 k-point ** :   0.5000 0.0000 0.3000  plane waves:    7622
 k-point ** :   0.5000 0.0000 0.3333  plane waves:    7634
 k-point ** :   0.5000 0.0000 0.3667  plane waves:    7614
 k-point ** :   0.5000 0.0000 0.4000  plane waves:    7624
 k-point ** :   0.5000 0.0000 0.4333  plane waves:    7632
 k-point ** :   0.5000 0.0000 0.4667  plane waves:    7640
 k-point ** :   0.5000 0.0000 0.5000  plane waves:    7652
 k-point ** :   0.0000 0.5000 0.0000  plane waves:    7654
 k-point ** :   0.0000 0.5000 0.0333  plane waves:    7642
 k-point ** :   0.0000 0.5000 0.0667  plane waves:    7622
 k-point ** :   0.0000 0.5000 0.1000  plane waves:    7626
 k-point ** :   0.0000 0.5000 0.1333  plane waves:    7620
 k-point ** :   0.0000 0.5000 0.1667  plane waves:    7624
 k-point ** :   0.0000 0.5000 0.2000  plane waves:    7628
 k-point ** :   0.0000 0.5000 0.2333  plane waves:    7624
 k-point ** :   0.0000 0.5000 0.2667  plane waves:    7618
 k-point ** :   0.0000 0.5000 0.3000  plane waves:    7616
 k-point ** :   0.0000 0.5000 0.3333  plane waves:    7626
 k-point ** :   0.0000 0.5000 0.3667  plane waves:    7630
 k-point ** :   0.0000 0.5000 0.4000  plane waves:    7640
 k-point ** :   0.0000 0.5000 0.4333  plane waves:    7630
 k-point ** :   0.0000 0.5000 0.4667  plane waves:    7614
 k-point ** :   0.0000 0.5000 0.5000  plane waves:    7596
 k-point ** :   0.5000 0.5000 0.0000  plane waves:    7640
 k-point ** :   0.5000 0.5000 0.0333  plane waves:    7652
 k-point ** :   0.5000 0.5000 0.0667  plane waves:    7648
 k-point ** :   0.5000 0.5000 0.1000  plane waves:    7652
 k-point ** :   0.5000 0.5000 0.1333  plane waves:    7644
 k-point ** :   0.5000 0.5000 0.1667  plane waves:    7644
 k-point ** :   0.5000 0.5000 0.2000  plane waves:    7636
 k-point ** :   0.5000 0.5000 0.2333  plane waves:    7632
 k-point ** :   0.5000 0.5000 0.2667  plane waves:    7612
 k-point ** :   0.5000 0.5000 0.3000  plane waves:    7592
 k-point ** :   0.5000 0.5000 0.3333  plane waves:    7584
 k-point ** :   0.5000 0.5000 0.3667  plane waves:    7584
 k-point ** :   0.5000 0.5000 0.4000  plane waves:    7588
 k-point ** :   0.5000 0.5000 0.4333  plane waves:    7592
 k-point ** :   0.5000 0.5000 0.4667  plane waves:    7600
 k-point ** :   0.5000 0.5000 0.5000  plane waves:    7592

 maximum and minimum number of plane-waves per node :       689      580

 maximum number of plane-waves:      7673
 maximum index in each direction: 
   IXMAX=   24   IYMAX=    8   IZMAX=    8
   IXMIN=  -24   IYMIN=   -9   IZMIN=   -9

 NGX is ok and might be reduce to  98
 NGY is ok and might be reduce to  36
 NGZ is ok and might be reduce to  36

 parallel 3D FFT for wavefunctions:
    minimum data exchange during FFTs selected (reduces bandwidth)
 parallel 3D FFT for charge:
    minimum data exchange during FFTs selected (reduces bandwidth)


 FFT grid for exact exchange (Hartree Fock) 
  NGX = 80; NGY = 28; NGZ = 28

 
 Radii for the augmentation spheres in the non-local exchange
 for species   1 augmentation radius   1.487 (default was   1.190)
       energy cutoff for augmentation   2080.0
 for species   2 augmentation radius   1.443 (default was   1.154)
       energy cutoff for augmentation   2080.0

 real space projection operators:
  total allocation   :       4542.19 KBytes
  max/ min on nodes  :        391.41        367.77

 Maximum index for augmentation-charges in exchange          284
  SETUP_FOCK is finished

 total amount of memory used by VASP on root node   115839. kBytes
========================================================================

   base      :      30000. kBytes
   nonl-proj :      39911. kBytes
   fftplans  :       2548. kBytes
   grid      :       1359. kBytes
   one-center:         15. kBytes
   HF        :         64. kBytes
   nonlr-proj:        887. kBytes
   wavefun   :      41055. kBytes
 
     INWAV:  cpu time  164.6690: real time  165.6481
 Broyden mixing: mesh for mixing (old mesh)
   NGX = 49   NGY = 17   NGZ = 17
  (NGX  =196   NGY  = 72   NGZ  = 72)
  gives a total of  14161 points

 initial charge density was supplied:
 number of electron      80.0000001 magnetization 
 charge density for first step will be calculated from the start-wavefunctions


--------------------------------------------------------------------------------------------------------


 Maximum index for augmentation-charges            0 (set IRDMAX)


--------------------------------------------------------------------------------------------------------


 initial charge from wavefunction
 First call to EWALD:  gamma=   0.270
 Maximum number of real-space cells 2x 4x 4
 Maximum number of reciprocal cells 5x 2x 2

 FEWALD executed in parallel
    FEWALD:  cpu time    0.0041: real time    0.0065


----------------------------------------- Iteration    1(   1)  ---------------------------------------


    POTLOK:  cpu time    0.4191: real time    0.4041
    SETDIJ:  cpu time    0.3876: real time    0.3477
    TRIAL :  cpu time 5102.0505: real time 5099.9090
    CORREC:  cpu time    0.0000: real time    0.0494
    CHARGE:  cpu time    0.0000: real time    0.4099
    --------------------------------------------
      LOOP:  cpu time 5102.8697: real time 5101.1666

 eigenvalue-minimisations  :     0
 total energy-change (2. order) :-0.3547507E+02  (-0.4478596E+00)
 number of electron      80.0000001 magnetization 
 augmentation part       17.9317490 magnetization 

 Free energy of the ion-electron system (eV)
  ---------------------------------------------------
  alpha Z        PSCENC =       137.28279626
  Ewald energy   TEWEN  =     -5467.32054453
  -Hartree energ DENC   =     -2049.92968028
  -exchange      EXHF   =       153.24828002
  -V(xc)+E(xc)   XCENC  =        22.81955719
  PAW double counting   =      7397.62338331    -7194.35364811
  entropy T*S    EENTRO =        -0.00000000
  eigenvalues    EBANDS =      -568.82745446
  atomic energy  EATOM  =      7533.98223959
  ---------------------------------------------------
  free energy    TOTEN  =       -35.47507102 eV

  energy without entropy =      -35.47507102  energy(sigma->0) =      -35.47507102
  exchange ACFDT corr.  =        -0.00000000  see jH, gK, PRB 81, 115126


--------------------------------------------------------------------------------------------------------




----------------------------------------- Iteration    1(   2)  ---------------------------------------


    POTLOK:  cpu time    0.0000: real time    0.4757
    SETDIJ:  cpu time    0.0000: real time    0.2657
    TRIAL :  cpu time 5086.4885: real time 5098.7809
    CORREC:  cpu time    0.0000: real time    0.1105
    CHARGE:  cpu time    0.0000: real time    0.3893
    --------------------------------------------
      LOOP:  cpu time 5086.4885: real time 5100.1074

 eigenvalue-minimisations  :     0
 total energy-change (2. order) :-0.2073469E+00  (-0.4004363E+00)
 number of electron      80.0000001 magnetization 
 augmentation part       17.7876404 magnetization 

 Free energy of the ion-electron system (eV)
  ---------------------------------------------------
  alpha Z        PSCENC =       137.28279626
  Ewald energy   TEWEN  =     -5467.32054453
  -Hartree energ DENC   =     -2069.88552404
  -exchange      EXHF   =       153.73459751
  -V(xc)+E(xc)   XCENC  =        23.42500006
  PAW double counting   =      8099.95691619    -7895.14595573
  entropy T*S    EENTRO =        -0.00000000
  eigenvalues    EBANDS =      -551.71194321
  atomic energy  EATOM  =      7533.98223959
  ---------------------------------------------------
  free energy    TOTEN  =       -35.68241791 eV

  energy without entropy =      -35.68241791  energy(sigma->0) =      -35.68241791
  exchange ACFDT corr.  =        -0.00000000  see jH, gK, PRB 81, 115126


--------------------------------------------------------------------------------------------------------




----------------------------------------- Iteration    1(   3)  ---------------------------------------


    POTLOK:  cpu time    0.0000: real time    0.4189
    SETDIJ:  cpu time    0.0000: real time    0.7059
    TRIAL :  cpu time 5088.9707: real time 5101.8896
    CORREC:  cpu time    0.0022: real time    0.0450
    CHARGE:  cpu time    0.3783: real time    0.4314
    --------------------------------------------
      LOOP:  cpu time 5089.3514: real time 5103.6626

 eigenvalue-minimisations  :     0
 total energy-change (2. order) :-0.1946452E+00  (-0.1388191E+00)
 number of electron      80.0000001 magnetization 
 augmentation part       17.9133076 magnetization 

 Free energy of the ion-electron system (eV)
  ---------------------------------------------------
  alpha Z        PSCENC =       137.28279626
  Ewald energy   TEWEN  =     -5467.32054453
  -Hartree energ DENC   =     -2046.04835948
  -exchange      EXHF   =       153.30879443
  -V(xc)+E(xc)   XCENC  =        22.84055805
  PAW double counting   =      9336.84465089    -9131.90635565
  entropy T*S    EENTRO =        -0.00000000
  eigenvalues    EBANDS =      -574.86084266
  atomic energy  EATOM  =      7533.98223959
  ---------------------------------------------------
  free energy    TOTEN  =       -35.87706310 eV

  energy without entropy =      -35.87706310  energy(sigma->0) =      -35.87706310
  exchange ACFDT corr.  =        -0.00000000  see jH, gK, PRB 81, 115126


--------------------------------------------------------------------------------------------------------




----------------------------------------- Iteration    1(   4)  ---------------------------------------


    POTLOK:  cpu time    0.3996: real time    0.4044
    SETDIJ:  cpu time    0.2667: real time    0.2668
    TRIAL :  cpu time 5093.5215: real time 5102.9204
    CORREC:  cpu time    0.0021: real time    0.0333
    CHARGE:  cpu time    0.3733: real time    0.3935
    --------------------------------------------
      LOOP:  cpu time 5094.5664: real time 5104.1393

 eigenvalue-minimisations  :     0
 total energy-change (2. order) :-0.9011124E-01  (-0.3325669E-01)
[...]
      8     -13.7719      2.00000
      9     -13.7625      2.00000
     10     -13.7625      2.00000
     11     -13.7625      2.00000
     12     -13.7625      2.00000
     13     -13.7451      2.00000
     14     -13.7451      2.00000
     15     -13.7451      2.00000
     16     -13.7451      2.00000
     17     -13.7419      2.00000
     18     -13.7419      2.00000
     19     -13.7419      2.00000
     20     -13.7419      2.00000
     21      -6.4770      2.00000
     22      -6.4770      2.00000
     23      -6.4770      2.00000
     24      -6.4770      2.00000
     25      -3.6347      2.00000
     26      -3.6347      2.00000
     27      -3.6347      2.00000
     28      -3.6347      2.00000
     29       0.8221      2.00000
     30       0.8221      2.00000
     31       0.8221      2.00000
     32       0.8221      2.00000
     33       2.0368      2.00000
     34       2.0368      2.00000
     35       2.0368      2.00000
     36       2.0368      2.00000
     37       2.7634      2.00000
     38       2.7634      2.00000
     39       2.7634      2.00000
     40       2.7634      2.00000
     41       8.6793      0.00000
     42       8.6793      0.00000
     43       8.6793      0.00000
     44       8.6793      0.00000
     45       9.4375      0.00000
     46       9.4375      0.00000
     47       9.4375      0.00000
     48       9.4375      0.00000

 k-point   176 :       0.5000    0.5000    0.3667
  band No.  band energies     occupation 
      1     -13.8137      2.00000
      2     -13.8137      2.00000
      3     -13.8137      2.00000
      4     -13.8137      2.00000
      5     -13.7709      2.00000
      6     -13.7709      2.00000
      7     -13.7709      2.00000
      8     -13.7709      2.00000
      9     -13.7632      2.00000
     10     -13.7632      2.00000
     11     -13.7632      2.00000
     12     -13.7632      2.00000
     13     -13.7446      2.00000
     14     -13.7446      2.00000
     15     -13.7446      2.00000
     16     -13.7446      2.00000
     17     -13.7411      2.00000
     18     -13.7411      2.00000
     19     -13.7411      2.00000
     20     -13.7411      2.00000
     21      -6.4397      2.00000
     22      -6.4397      2.00000
     23      -6.4397      2.00000
     24      -6.4397      2.00000
     25      -3.5710      2.00000
     26      -3.5710      2.00000
     27      -3.5710      2.00000
     28      -3.5710      2.00000
     29       0.6253      2.00000
     30       0.6253      2.00000
     31       0.6253      2.00000
     32       0.6253      2.00000
     33       1.8460      2.00000
     34       1.8460      2.00000
     35       1.8460      2.00000
     36       1.8460      2.00000
     37       2.7835      2.00000
     38       2.7835      2.00000
     39       2.7835      2.00000
     40       2.7835      2.00000
     41       8.7442      0.00000
     42       8.7442      0.00000
     43       8.7442      0.00000
     44       8.7442      0.00000
     45       9.4983      0.00000
     46       9.4983      0.00000
     47       9.4983      0.00000
     48       9.4983      0.00000

 k-point   177 :       0.5000    0.5000    0.4000
  band No.  band energies     occupation 
      1     -13.8155      2.00000
      2     -13.8155      2.00000
      3     -13.8155      2.00000
      4     -13.8155      2.00000
      5     -13.7701      2.00000
      6     -13.7701      2.00000
      7     -13.7701      2.00000
      8     -13.7701      2.00000
      9     -13.7637      2.00000
     10     -13.7637      2.00000
     11     -13.7637      2.00000
     12     -13.7637      2.00000
     13     -13.7443      2.00000
     14     -13.7443      2.00000
     15     -13.7443      2.00000
     16     -13.7443      2.00000
     17     -13.7403      2.00000
     18     -13.7403      2.00000
     19     -13.7403      2.00000
     20     -13.7403      2.00000
     21      -6.4082      2.00000
     22      -6.4082      2.00000
     23      -6.4082      2.00000
     24      -6.4082      2.00000
     25      -3.5154      2.00000
     26      -3.5154      2.00000
     27      -3.5154      2.00000
     28      -3.5154      2.00000
     29       0.4666      2.00000
     30       0.4666      2.00000
     31       0.4666      2.00000
     32       0.4666      2.00000
     33       1.6913      2.00000
     34       1.6913      2.00000
     35       1.6913      2.00000
     36       1.6913      2.00000
     37       2.8025      2.00000
     38       2.8025      2.00000
     39       2.8025      2.00000
     40       2.8025      2.00000
     41       8.8044      0.00000
     42       8.8044      0.00000
     43       8.8044      0.00000
     44       8.8044      0.00000
     45       9.4487      0.00000
     46       9.4487      0.00000
     47       9.4487      0.00000
     48       9.4487      0.00000

 k-point   178 :       0.5000    0.5000    0.4333
  band No.  band energies     occupation 
      1     -13.8169      2.00000
      2     -13.8169      2.00000
      3     -13.8169      2.00000
      4     -13.8169      2.00000
      5     -13.7695      2.00000
      6     -13.7695      2.00000
      7     -13.7696      2.00000
      8     -13.7696      2.00000
      9     -13.7641      2.00000
     10     -13.7641      2.00000
     11     -13.7641      2.00000
     12     -13.7641      2.00000
     13     -13.7441      2.00000
     14     -13.7441      2.00000
     15     -13.7441      2.00000
     16     -13.7441      2.00000
     17     -13.7397      2.00000
     18     -13.7397      2.00000
     19     -13.7397      2.00000
     20     -13.7397      2.00000
     21      -6.3842      2.00000
     22      -6.3842      2.00000
     23      -6.3842      2.00000
     24      -6.3842      2.00000
     25      -3.4720      2.00000
     26      -3.4720      2.00000
     27      -3.4720      2.00000
     28      -3.4720      2.00000
     29       0.3498      2.00000
     30       0.3498      2.00000
     31       0.3498      2.00000
     32       0.3498      2.00000
     33       1.5776      2.00000
     34       1.5776      2.00000
     35       1.5776      2.00000
     36       1.5776      2.00000
     37       2.8177      2.00000
     38       2.8177      2.00000
     39       2.8177      2.00000
     40       2.8177      2.00000
     41       8.8578      0.00000
     42       8.8578      0.00000
     43       8.8578      0.00000
     44       8.8578      0.00000
     45       9.3753      0.00000
     46       9.3753      0.00000
     47       9.3753      0.00000
     48       9.3753      0.00000

 k-point   179 :       0.5000    0.5000    0.4667
  band No.  band energies     occupation 
      1     -13.8177      2.00000
      2     -13.8177      2.00000
      3     -13.8177      2.00000
      4     -13.8177      2.00000
      5     -13.7692      2.00000
      6     -13.7692      2.00000
      7     -13.7692      2.00000
      8     -13.7692      2.00000
      9     -13.7644      2.00000
     10     -13.7644      2.00000
     11     -13.7644      2.00000
     12     -13.7644      2.00000
     13     -13.7440      2.00000
     14     -13.7440      2.00000
     15     -13.7440      2.00000
     16     -13.7440      2.00000
     17     -13.7393      2.00000
     18     -13.7393      2.00000
     19     -13.7393      2.00000
     20     -13.7393      2.00000
     21      -6.3692      2.00000
     22      -6.3692      2.00000
     23      -6.3692      2.00000
     24      -6.3692      2.00000
     25      -3.4442      2.00000
     26      -3.4442      2.00000
     27      -3.4442      2.00000
     28      -3.4442      2.00000
     29       0.2783      2.00000
     30       0.2783      2.00000
     31       0.2783      2.00000
     32       0.2783      2.00000
     33       1.5080      2.00000
     34       1.5080      2.00000
     35       1.5080      2.00000
     36       1.5080      2.00000
     37       2.8273      2.00000
     38       2.8273      2.00000
     39       2.8273      2.00000
     40       2.8273      2.00000
     41       8.8984      0.00000
     42       8.8984      0.00000
     43       8.8984      0.00000
     44       8.8984      0.00000
     45       9.3163      0.00000
     46       9.3163      0.00000
     47       9.3163      0.00000
     48       9.3163      0.00000

 k-point   180 :       0.5000    0.5000    0.5000
  band No.  band energies     occupation 
      1     -13.8180      2.00000
      2     -13.8180      2.00000
      3     -13.8180      2.00000
      4     -13.8180      2.00000
      5     -13.7691      2.00000
      6     -13.7691      2.00000
      7     -13.7691      2.00000
      8     -13.7691      2.00000
      9     -13.7644      2.00000
     10     -13.7644      2.00000
     11     -13.7644      2.00000
     12     -13.7644      2.00000
     13     -13.7440      2.00000
     14     -13.7440      2.00000
     15     -13.7440      2.00000
     16     -13.7440      2.00000
     17     -13.7392      2.00000
     18     -13.7392      2.00000
     19     -13.7392      2.00000
     20     -13.7392      2.00000
     21      -6.3641      2.00000
     22      -6.3641      2.00000
     23      -6.3641      2.00000
     24      -6.3641      2.00000
     25      -3.4347      2.00000
     26      -3.4347      2.00000
     27      -3.4347      2.00000
     28      -3.4347      2.00000
     29       0.2541      2.00000
     30       0.2541      2.00000
     31       0.2541      2.00000
     32       0.2541      2.00000
     33       1.4847      2.00000
     34       1.4847      2.00000
     35       1.4847      2.00000
     36       1.4847      2.00000
     37       2.8307      2.00000
     38       2.8307      2.00000
     39       2.8307      2.00000
     40       2.8307      2.00000
     41       8.9145      0.00000
     42       8.9145      0.00000
     43       8.9145      0.00000
     44       8.9145      0.00000
     45       9.2933      0.00000
     46       9.2933      0.00000
     47       9.2933      0.00000
     48       9.2933      0.00000


--------------------------------------------------------------------------------------------------------


 soft charge-density along one line, spin component           1
         0         1         2         3         4         5         6         7         8         9
 total charge-density along one line
 
 pseudopotential strength for first ion, spin component:           1
 49.411  53.765   0.000   0.001  -0.000   0.000   0.001  -0.000
 53.765  58.506   0.000   0.001  -0.000   0.000   0.001  -0.000
  0.000   0.000  12.140  -0.000   0.000  17.518  -0.000   0.000
  0.001   0.001  -0.000  12.140   0.000  -0.000  17.518   0.000
 -0.000  -0.000   0.000   0.000  12.140   0.000   0.000  17.518
  0.000   0.000  17.518  -0.000   0.000  25.284  -0.000   0.000
  0.001   0.001  -0.000  17.518   0.000  -0.000  25.284   0.000
 -0.000  -0.000   0.000   0.000  17.518   0.000   0.000  25.284
  0.000   0.000  -0.000  -0.000   0.000  -0.000  -0.000   0.000
  0.000   0.000   0.000   0.000  -0.000   0.000   0.000  -0.000
 -0.000  -0.000  -0.000   0.000   0.000  -0.000   0.000   0.000
  0.000   0.000  -0.000  -0.000   0.000  -0.000  -0.000   0.000
 -0.000  -0.000   0.000   0.000  -0.000   0.000   0.000  -0.000
 total augmentation occupancy for first ion, spin component:           1
 11.491  -7.475   0.000  -0.064   0.019  -0.000   0.030  -0.008   0.000   0.000  -0.000  -0.000   0.001
 -7.475   5.671  -0.000   0.055  -0.016   0.000  -0.026   0.007  -0.000  -0.000   0.000   0.000  -0.001
  0.000  -0.000  10.245  -0.000   0.000  -4.555   0.000  -0.000  -0.000   0.003   0.000   0.000  -0.000
 -0.064   0.055  -0.000  10.242   0.001   0.000  -4.551  -0.002   0.000   0.000   0.001  -0.000  -0.001
  0.019  -0.016   0.000   0.001  10.241  -0.000  -0.002  -4.551  -0.000  -0.000   0.000   0.001  -0.001
 -0.000   0.000  -4.555   0.000  -0.000   2.040  -0.000   0.000   0.000  -0.002  -0.000  -0.000   0.000
  0.030  -0.026   0.000  -4.551  -0.002  -0.000   2.038   0.001  -0.000  -0.000  -0.000   0.000   0.001
 -0.008   0.007  -0.000  -0.002  -4.551   0.000   0.001   2.038   0.000  -0.000  -0.000  -0.001   0.000
  0.000  -0.000  -0.000   0.000  -0.000   0.000  -0.000   0.000   0.002   0.000   0.000  -0.000  -0.000
  0.000  -0.000   0.003   0.000  -0.000  -0.002  -0.000  -0.000   0.000   0.008  -0.000  -0.000  -0.000
 -0.000   0.000   0.000   0.001   0.000  -0.000  -0.000  -0.000   0.000  -0.000   0.004  -0.000  -0.003
 -0.000   0.000   0.000  -0.000   0.001  -0.000   0.000  -0.001  -0.000  -0.000  -0.000   0.002   0.000
  0.001  -0.001  -0.000  -0.001  -0.001   0.000   0.001   0.000  -0.000  -0.000  -0.003   0.000   0.007


------------------------ aborting loop because EDIFF is reached ----------------------------------------


 


 total charge     
 
# of ion     s       p       d       tot
----------------------------------------
  1        1.330   2.145   0.014   3.490
  2        1.330   2.145   0.014   3.490
  3        1.330   2.145   0.014   3.490
  4        1.330   2.145   0.014   3.490
  5        1.495   0.511   9.836  11.841
  6        1.495   0.511   9.836  11.841
  7        1.495   0.511   9.836  11.841
  8        1.495   0.511   9.836  11.841
------------------------------------------------
tot       11.301  10.624  39.400  61.325
 
    FORLOC:  cpu time    0.0119: real time    0.0138
    FORHF :  cpu time15981.8800: real time16008.5177
    FORNL :  cpu time    1.3511: real time    1.6091
    STRESS:  cpu time    2.8730: real time    2.8836
    FORCOR:  cpu time    0.1807: real time    0.2037
    OFIELD:  cpu time    0.0010: real time    0.0037

  FORCE on cell =-STRESS in cart. coord.  units (eV):
  Direction    XX          YY          ZZ          XY          YZ          ZX
  --------------------------------------------------------------------------------------
  Alpha Z   137.28280   137.28280   137.28280
  Ewald   -1823.96894 -1820.79257 -1822.56612    -0.00000    -0.00000    -0.00000
  Hartree   683.80968   684.98688   684.77656     0.00000    -0.00000     0.00005
  E(xc)    -274.19399  -274.18558  -274.19518     0.00000    -0.00000     0.00000
  Local    -504.75068  -509.06699  -507.12335    -0.00000     0.00000    -0.00006
  n-local  1077.46371  1077.52314  1077.50608    -0.00037     2.27053    -0.00020
  augment   371.24158   371.28600   371.21332     0.00000    -0.00000     0.00000
  Kinetic   766.36049   766.22593   766.56622    -0.05668    10.72459    -0.06138
  Fock            NaN         NaN         NaN         NaN         NaN         NaN
  -------------------------------------------------------------------------------------
  Total           NaN         NaN         NaN         NaN         NaN         NaN
  in kB           NaN         NaN         NaN         NaN         NaN         NaN
  external pressure =         NaN kB  Pullay stress =        0.00 kB


 VOLUME and BASIS-vectors are now :
 -----------------------------------------------------------------------------
  energy-cutoff  :      520.00
  volume of cell :      283.26
      direct lattice vectors                 reciprocal lattice vectors
    13.139452401  0.000000000  0.000000000     0.076106672  0.000000000  0.000000000
     0.000000000  4.652005925  0.000000000     0.000000000  0.214961033  0.000000000
     0.000000000  0.000000000  4.634106391     0.000000000  0.000000000  0.215791334

  length of vectors
    13.139452401  4.652005925  4.634106391     0.076106672  0.214961033  0.215791334


 FORCES acting on ions:
    Electron-Ion                     Ewald-Force                    Non-Local-Force
 -----------------------------------------------------------------------------------------------
   -.338E+00 -.674E-05 0.723E+00   0.354E+00 -.795E-14 -.772E+00   -.164E-01 0.000E+00 0.493E-01
   -.338E+00 0.631E-05 -.723E+00   0.354E+00 0.104E-13 0.772E+00   -.164E-01 0.000E+00 -.493E-01
   0.338E+00 0.673E-05 -.723E+00   -.354E+00 0.963E-14 0.772E+00   0.164E-01 0.000E+00 -.493E-01
   0.338E+00 -.633E-05 0.723E+00   -.354E+00 -.899E-14 -.772E+00   0.164E-01 0.000E+00 0.493E-01
   0.522E+00 0.336E-04 -.687E+00   -.543E+00 0.400E-14 0.824E+00   0.186E-01 -.867E-18 -.121E+00
   0.522E+00 -.323E-04 0.687E+00   -.543E+00 -.111E-13 -.824E+00   0.186E-01 0.173E-17 0.121E+00
   -.522E+00 -.335E-04 0.687E+00   0.543E+00 -.385E-14 -.824E+00   -.186E-01 0.867E-18 0.121E+00
   -.522E+00 0.323E-04 -.687E+00   0.543E+00 0.111E-13 0.824E+00   -.186E-01 -.173E-17 -.121E+00
 -----------------------------------------------------------------------------------------------
   -.206E-07 0.741E-07 -.226E-06   0.355E-14 0.322E-14 0.511E-14   0.694E-17 0.000E+00 -.139E-16
 
 
 POSITION                                       TOTAL-FORCE (eV/Angst)
 -----------------------------------------------------------------------------------
     11.49743      3.48900      3.47288              NaN           NaN           NaN
      4.92770      3.48900      3.47828              NaN           NaN           NaN
      1.64203      1.16300      1.16123              NaN           NaN           NaN
      8.21175      1.16300      1.15583              NaN           NaN           NaN
      8.21374      3.48900      3.46563              NaN           NaN           NaN
      1.64401      3.48900      3.48553              NaN           NaN           NaN
      4.92571      1.16300      1.16848              NaN           NaN           NaN
     11.49544      1.16300      1.14858              NaN           NaN           NaN
 -----------------------------------------------------------------------------------
    total drift:                                     NaN           NaN           NaN


--------------------------------------------------------------------------------------------------------



  FREE ENERGIE OF THE ION-ELECTRON SYSTEM (eV)
  ---------------------------------------------------
  free  energy   TOTEN  =       -36.00311399 eV

  energy  without entropy=      -36.00311399  energy(sigma->0) =      -36.00311399
 


--------------------------------------------------------------------------------------------------------


    POTLOK:  cpu time    0.6709: real time    0.7831


--------------------------------------------------------------------------------------------------------


     LOOP+:  cpu time71964.3428: real time72140.3225
    4ORBIT:  cpu time    0.0000: real time    0.0000
 


 total charge     
 
# of ion     s       p       d       tot
----------------------------------------
  1        1.330   2.145   0.014   3.490
  2        1.330   2.145   0.014   3.490
  3        1.330   2.145   0.014   3.490
  4        1.330   2.145   0.014   3.490
  5        1.495   0.511   9.836  11.841
  6        1.495   0.511   9.836  11.841
  7        1.495   0.511   9.836  11.841
  8        1.495   0.511   9.836  11.841
------------------------------------------------
tot       11.301  10.624  39.400  61.325
 

 total amount of memory used by VASP on root node   119655. kBytes
========================================================================

   base      :      30000. kBytes
   nonl-proj :      39911. kBytes
   fftplans  :       2548. kBytes
   grid      :       1359. kBytes
   one-center:         15. kBytes
   HF        :         64. kBytes
   nonlr-proj:       4703. kBytes
   wavefun   :      41055. kBytes
 
  
  
 General timing and accounting informations for this job:
 ========================================================
  
                  Total CPU time used (sec):    72254.750
                            User time (sec):    72113.238
                          System time (sec):      141.512
                         Elapsed time (sec):    72434.066
  
                   Maximum memory used (kb):      418844.
                   Average memory used (kb):           0.
  
                          Minor page faults:      6501404
                          Major page faults:          109
                 Voluntary context switches:        10804
