 vasp.5.4.4.18Apr17-6-g9f103f2a35 (build Jan 10 2024 09:48:00) complex          
  
 executed on             LinuxIFC date 2024.04.26  10:06:06
 running on   64 total cores
 distrk:  each k-point on   64 cores,    1 groups
 distr:  one band on NCORES_PER_BAND=   8 cores,    8 groups


--------------------------------------------------------------------------------------------------------


 INCAR:
 POTCAR:    PAW_PBE La 06Sep2000                  
 POTCAR:    PAW_PBE W 08Apr2002                   
 POTCAR:    PAW_PBE N 08Apr2002                   
 POTCAR:    PAW_PBE La 06Sep2000                  
   VRHFIN =La : [core=Kr4d]                                                     
   LEXCH  = PE                                                                  
   EATOM  =   865.9763 eV,   63.6475 Ry                                         
                                                                                
   TITEL  = PAW_PBE La 06Sep2000                                                
   LULTRA =        F    use ultrasoft PP ?                                      
   IUNSCR =        1    unscreen: 0-lin 1-nonlin 2-no                           
   RPACOR =    2.300    partial core radius                                     
   POMASS =  138.900; ZVAL   =   11.000    mass and valenz                      
   RCORE  =    2.800    outmost cutoff radius                                   
   RWIGS  =    2.900; RWIGS  =    1.535    wigner-seitz radius (au A)           
   ENMAX  =  219.292; ENMIN  =  164.469 eV                                      
   RCLOC  =    1.601    cutoff for local pot                                    
   LCOR   =        T    correct aug charges                                     
   LPAW   =        T    paw PP                                                  
   EAUG   =  583.575                                                            
   DEXC   =    0.000                                                            
   RMAX   =    2.853    core radius for proj-oper                               
   RAUG   =    1.300    factor for augmentation sphere                          
   RDEP   =    2.802    radius for radial grids                                 
   RDEPT  =    2.156    core radius for aug-charge                              
                                                                                
   Atomic configuration                                                         
   14 entries                                                                   
     n  l   j            E        occ.                                          
     1  0  0.50    -38741.0879   2.0000                                         
     2  0  0.50     -6166.6801   2.0000                                         
     2  1  1.50     -5526.1593   6.0000                                         
     3  0  0.50     -1319.0200   2.0000                                         
     3  1  1.50     -1114.5963   6.0000                                         
     3  2  2.50      -821.1793  10.0000                                         
     4  0  0.50      -266.3851   2.0000                                         
     4  1  1.50      -199.9276   6.0000                                         
     4  2  2.50      -103.8239  10.0000                                         
     5  0  0.50       -38.9172   2.0000                                         
     6  0  0.50        -3.6792   2.0000                                         
     5  1  1.50       -22.3948   6.0000                                         
     5  2  2.50        -3.0911   0.9999                                         
     4  3  2.50        -4.3603   0.0001                                         
   Description                                                                  
     l       E           TYP  RCUT    TYP  RCUT                                 
     0    -38.9171645     23  2.800                                             
     0     -3.6792381     23  2.800                                             
     1    -22.3948300     23  2.500                                             
     1     27.2116520     23  2.500                                             
     2     -3.0910934     23  2.500                                             
     2      1.0119135     23  2.500                                             
     3     -4.3602911     23  2.800                                             
     3     -5.7208737     23  2.800                                             
  local pseudopotential read in
  partial core-charges read in
  partial kinetic energy density read in
  atomic valenz-charges read in
  non local Contribution for L=           0  read in
    real space projection operators read in
  non local Contribution for L=           0  read in
    real space projection operators read in
  non local Contribution for L=           1  read in
    real space projection operators read in
  non local Contribution for L=           1  read in
    real space projection operators read in
  non local Contribution for L=           2  read in
    real space projection operators read in
  non local Contribution for L=           2  read in
    real space projection operators read in
  non local Contribution for L=           3  read in
    real space projection operators read in
  non local Contribution for L=           3  read in
    real space projection operators read in
    PAW grid and wavefunctions read in
 
   number of l-projection  operators is LMAX  =           8
   number of lm-projection operators is LMMAX =          32
 
 POTCAR:    PAW_PBE W 08Apr2002                   
   VRHFIN =W : 6s5d                                                             
   LEXCH  = PE                                                                  
   EATOM  =   204.6103 eV,   15.0384 Ry                                         
                                                                                
   TITEL  = PAW_PBE W 08Apr2002                                                 
   LULTRA =        F    use ultrasoft PP ?                                      
   IUNSCR =        1    unscreen: 0-lin 1-nonlin 2-no                           
   RPACOR =    2.330    partial core radius                                     
   POMASS =  183.850; ZVAL   =    6.000    mass and valenz                      
   RCORE  =    2.750    outmost cutoff radius                                   
   RWIGS  =    2.750; RWIGS  =    1.455    wigner-seitz radius (au A)           
   ENMAX  =  223.057; ENMIN  =  167.293 eV                                      
   RCLOC  =    2.147    cutoff for local pot                                    
   LCOR   =        T    correct aug charges                                     
   LPAW   =        T    paw PP                                                  
   EAUG   =  373.438                                                            
   DEXC   =    0.000                                                            
   RMAX   =    2.801    core radius for proj-oper                               
   RAUG   =    1.300    factor for augmentation sphere                          
   RDEP   =    2.886    radius for radial grids                                 
   RDEPT  =    2.230    core radius for aug-charge                              
                                                                                
   Atomic configuration                                                         
   16 entries                                                                   
     n  l   j            E        occ.                                          
     1  0  0.50    -69465.5836   2.0000                                         
     2  0  0.50    -11986.2642   2.0000                                         
     2  1  1.50    -10479.8616   6.0000                                         
     3  0  0.50     -2759.0758   2.0000                                         
     3  1  1.50     -2313.1857   6.0000                                         
     3  2  2.50     -1801.1185  10.0000                                         
     4  0  0.50      -567.6791   2.0000                                         
     4  1  1.50      -421.4694   6.0000                                         
     4  2  2.50      -236.3473  10.0000                                         
     4  3  3.50       -31.2666  14.0000                                         
     5  0  0.50       -77.1085   2.0000                                         
     5  1  1.50       -41.3856   6.0000                                         
     5  2  2.50        -3.3185   5.0000                                         
     6  0  0.50        -5.1438   1.0000                                         
     6  1  0.50        -3.8096   0.0000                                         
     5  3  2.50        -1.3606   0.0000                                         
   Description                                                                  
     l       E           TYP  RCUT    TYP  RCUT                                 
     2     -3.3185288     23  2.500                                             
     2     -1.5965414     23  2.500                                             
     0     -5.1438054     23  2.500                                             
     0      4.9117504     23  2.500                                             
     1      2.7211652     23  2.750                                             
     1     27.2116520     23  2.750                                             
  local pseudopotential read in
  partial core-charges read in
  partial kinetic energy density read in
  atomic valenz-charges read in
  non local Contribution for L=           2  read in
    real space projection operators read in
  non local Contribution for L=           2  read in
    real space projection operators read in
  non local Contribution for L=           0  read in
    real space projection operators read in
  non local Contribution for L=           0  read in
    real space projection operators read in
  non local Contribution for L=           1  read in
    real space projection operators read in
  non local Contribution for L=           1  read in
    real space projection operators read in
    PAW grid and wavefunctions read in
 
   number of l-projection  operators is LMAX  =           6
   number of lm-projection operators is LMMAX =          18
 
 POTCAR:    PAW_PBE N 08Apr2002                   
   VRHFIN =N: s2p3                                                              
   LEXCH  = PE                                                                  
   EATOM  =   264.5486 eV,   19.4438 Ry                                         
                                                                                
   TITEL  = PAW_PBE N 08Apr2002                                                 
   LULTRA =        F    use ultrasoft PP ?                                      
   IUNSCR =        1    unscreen: 0-lin 1-nonlin 2-no                           
   RPACOR =    1.200    partial core radius                                     
   POMASS =   14.001; ZVAL   =    5.000    mass and valenz                      
   RCORE  =    1.500    outmost cutoff radius                                   
   RWIGS  =    1.400; RWIGS  =    0.741    wigner-seitz radius (au A)           
   ENMAX  =  400.000; ENMIN  =  300.000 eV                                      
   ICORE  =        2    local potential                                         
   LCOR   =        T    correct aug charges                                     
   LPAW   =        T    paw PP                                                  
   EAUG   =  627.112                                                            
   DEXC   =    0.000                                                            
   RMAX   =    1.529    core radius for proj-oper                               
   RAUG   =    1.300    factor for augmentation sphere                          
   RDEP   =    1.514    radius for radial grids                                 
   RDEPT  =    1.338    core radius for aug-charge                              
                                                                                
   Atomic configuration                                                         
    4 entries                                                                   
     n  l   j            E        occ.                                          
     1  0  0.50      -384.7179   2.0000                                         
     2  0  0.50       -18.5828   2.0000                                         
     2  1  0.50        -7.0898   3.0000                                         
     3  2  1.50        -6.8029   0.0000                                         
   Description                                                                  
     l       E           TYP  RCUT    TYP  RCUT                                 
     0    -18.5828119     23  1.200                                             
     0    -13.5018863     23  1.200                                             
     1     -7.0897853     23  1.500                                             
     1      9.5240782     23  1.500                                             
     2     -6.8029130      7  1.500                                             
  local pseudopotential read in
  partial core-charges read in
  partial kinetic energy density read in
  atomic valenz-charges read in
  non local Contribution for L=           0  read in
    real space projection operators read in
  non local Contribution for L=           0  read in
    real space projection operators read in
  non local Contribution for L=           1  read in
    real space projection operators read in
  non local Contribution for L=           1  read in
    real space projection operators read in
    PAW grid and wavefunctions read in
 
   number of l-projection  operators is LMAX  =           4
   number of lm-projection operators is LMMAX =           8
 
 Optimization of the real space projectors (new method)

 maximal supplied QI-value         = 13.42
 optimisation between [QCUT,QGAM] = [ 11.67, 23.35] = [ 38.16,152.62] Ry 
 Optimized for a Real-space Cutoff    1.63 Angstroem

   l    n(q)    QCUT    max X(q) W(low)/X(q) W(high)/X(q)  e(spline) 
   0     11    11.673    13.882    0.27E-04    0.79E-05    0.11E-06
   0     11    11.673    12.184    0.39E-04    0.13E-04    0.19E-06
   1     11    11.673     4.523    0.73E-05    0.76E-05    0.12E-06
   1     11    11.673     4.424    0.87E-05    0.13E-04    0.19E-06
   2     10    11.673    52.481    0.65E-04    0.36E-04    0.18E-06
   2     10    11.673    38.501    0.61E-04    0.33E-04    0.17E-06
   3     10    11.673    65.631    0.17E-03    0.14E-03    0.37E-06
   3     10    11.673    56.854    0.17E-03    0.14E-03    0.37E-06
 Optimization of the real space projectors (new method)

 maximal supplied QI-value         = 13.61
 optimisation between [QCUT,QGAM] = [ 11.57, 23.27] = [ 37.45,151.59] Ry 
 Optimized for a Real-space Cutoff    1.53 Angstroem

   l    n(q)    QCUT    max X(q) W(low)/X(q) W(high)/X(q)  e(spline) 
   2     10    11.565   130.855    0.24E-03    0.66E-03    0.14E-05
   2     10    11.565   114.007    0.24E-03    0.66E-03    0.14E-05
   0     11    11.565    84.709    0.46E-04    0.91E-04    0.49E-06
   0     11    11.565    49.163    0.42E-04    0.83E-04    0.45E-06
   1     10    11.565    15.765    0.13E-03    0.22E-03    0.67E-06
   1     10    11.565    10.638    0.10E-03    0.17E-03    0.52E-06
 Optimization of the real space projectors (new method)

 maximal supplied QI-value         = 25.13
 optimisation between [QCUT,QGAM] = [ 11.56, 23.12] = [ 37.43,149.72] Ry 
 Optimized for a Real-space Cutoff    1.40 Angstroem

   l    n(q)    QCUT    max X(q) W(low)/X(q) W(high)/X(q)  e(spline) 
   0     10    11.561    79.467    0.46E-04    0.78E-04    0.61E-06
   0     10    11.561    66.151    0.45E-04    0.77E-04    0.61E-06
   1      9    11.561    18.886    0.22E-03    0.13E-03    0.12E-05
   1      9    11.561    13.488    0.23E-03    0.13E-03    0.12E-05
  PAW_PBE La 06Sep2000                  :
 energy of atom  1       EATOM= -865.9763
 kinetic energy error for atom=    0.0009 (will be added to EATOM!!)
  PAW_PBE W 08Apr2002                   :
 energy of atom  2       EATOM= -204.6103
 kinetic energy error for atom=    0.0014 (will be added to EATOM!!)
  PAW_PBE N 08Apr2002                   :
 energy of atom  3       EATOM= -264.5486
 kinetic energy error for atom=    0.0125 (will be added to EATOM!!)
 
 
 POSCAR: La4 W4 N12                              
  positions in direct lattice
  velocities in cartesian coordinates
 exchange correlation table for  LEXCH =        8
   RHO(1)=    0.500       N(1)  =     2000
   RHO(2)=  100.500       N(2)  =     4000
 


--------------------------------------------------------------------------------------------------------


 ion  position               nearest neighbor table
   1  0.491  0.002  0.250-  17 2.56  10 2.64  16 2.64  15 2.71   9 2.71   8 3.43   6 3.43   5 3.48
                             7 3.48   5 3.51   7 3.51   8 3.52   6 3.52
   2  0.991  0.498  0.250-  18 2.56  15 2.64   9 2.64  10 2.71  16 2.71   7 3.43   5 3.43   8 3.48
                             6 3.48   8 3.51   6 3.51   7 3.52   5 3.52
   3  0.509  0.998  0.750-  19 2.56  14 2.64  12 2.64  11 2.71  13 2.71   8 3.43   6 3.43   5 3.48
                             7 3.48   7 3.51   5 3.51   6 3.52   8 3.52
   4  0.009  0.502  0.750-  20 2.56  13 2.64  11 2.64  14 2.71  12 2.71   7 3.43   5 3.43   8 3.48
                             6 3.48   6 3.51   8 3.51   5 3.52   7 3.52
   5  0.500  0.500  0.000-  14 2.02  10 2.02  19 2.03  17 2.03  11 2.04  15 2.04   4 3.43   2 3.43
                             1 3.48   3 3.48   3 3.51   1 3.51   4 3.52   2 3.52
   6  0.000  0.000  0.500-   9 2.02  13 2.02  18 2.03  20 2.03  16 2.04  12 2.04   3 3.43   1 3.43
                             2 3.48   4 3.48   4 3.51   2 3.51   3 3.52   1 3.52
   7  0.500  0.500  0.500-  12 2.02  16 2.02  19 2.03  17 2.03  13 2.04   9 2.04   4 3.43   2 3.43
                             1 3.48   3 3.48   3 3.51   1 3.51   4 3.52   2 3.52
   8  0.000  0.000  0.000-  11 2.02  15 2.02  18 2.03  20 2.03  10 2.04  14 2.04   3 3.43   1 3.43
                             2 3.48   4 3.48   4 3.51   2 3.51   3 3.52   1 3.52
   9  0.238  0.260  0.471-   6 2.02   7 2.04   2 2.64   1 2.71
  10  0.738  0.240  0.029-   5 2.02   8 2.04   1 2.64   2 2.71
  11  0.762  0.740  0.971-   8 2.02   5 2.04   4 2.64   3 2.71
  12  0.262  0.760  0.529-   7 2.02   6 2.04   3 2.64   4 2.71
  13  0.762  0.740  0.529-   6 2.02   7 2.04   4 2.64   3 2.71
  14  0.262  0.760  0.971-   5 2.02   8 2.04   3 2.64   4 2.71
  15  0.238  0.260  0.029-   8 2.02   5 2.04   2 2.64   1 2.71
  16  0.738  0.240  0.471-   7 2.02   6 2.04   1 2.64   2 2.71
  17  0.502  0.555  0.250-   5 2.03   7 2.03   1 2.56
  18  0.002  0.945  0.250-   6 2.03   8 2.03   2 2.56
  19  0.498  0.445  0.750-   5 2.03   7 2.03   3 2.56
  20  0.998  0.055  0.750-   6 2.03   8 2.03   4 2.56
 
  LATTYP: Found a simple orthorhombic cell.
 ALAT       =     5.6720776805
 B/A-ratio  =     1.0091222780
 C/A-ratio  =     1.4133377660
  
  Lattice vectors:
  
 A1 = (   5.6720776805,   0.0000000000,   0.0000000000)
 A2 = (   0.0000000000,   5.7238199497,   0.0000000000)
 A3 = (   0.0000000000,   0.0000000000,   8.0165615975)


Analysis of symmetry for initial positions (statically):
=====================================================================
 Subroutine PRICEL returns:
 Original cell was already a primitive cell.
 

 Routine SETGRP: Setting up the symmetry group for a 
 simple orthorhombic supercell.


 Subroutine GETGRP returns: Found  8 space group operations
 (whereof  2 operations were pure point group operations)
 out of a pool of  8 trial point group operations.


The static configuration has the point symmetry S_2 .
 The point group associated with its full space group is D_2h.


Analysis of symmetry for dynamics (positions and initial velocities):
=====================================================================
 Subroutine PRICEL returns:
 Original cell was already a primitive cell.
 

 Routine SETGRP: Setting up the symmetry group for a 
 simple orthorhombic supercell.


 Subroutine GETGRP returns: Found  8 space group operations
 (whereof  2 operations were pure point group operations)
 out of a pool of  8 trial point group operations.


The dynamic configuration has the point symmetry S_2 .
 The point group associated with its full space group is D_2h.


 Subroutine INISYM returns: Found  8 space group operations
 (whereof  2 operations are pure point group operations),
 and found     1 'primitive' translations

 
 
 KPOINTS: 0.040   4   4   3   18  0.040  140   12 
  k-points in reciprocal lattice
Space group operators:
 irot       det(A)        alpha          n_x          n_y          n_z        tau_x        tau_y        tau_z
    1     1.000000     0.000000     1.000000     0.000000     0.000000     0.000000     0.000000     0.000000
    2    -1.000000     0.000000     1.000000     0.000000     0.000000     0.000000     0.000000     0.000000
    3     1.000000   180.000000     0.000000     0.000000     1.000000     0.000000     0.000000     0.500000
    4    -1.000000   180.000000     0.000000     0.000000     1.000000     0.000000     0.000000     0.500000
    5     1.000000   179.999999     0.000000     1.000000     0.000000     0.500000     0.500000     0.000000
    6    -1.000000   179.999999     0.000000     1.000000     0.000000     0.500000     0.500000     0.000000
    7     1.000000   180.000000     1.000000     0.000000     0.000000     0.500000     0.500000     0.500000
    8    -1.000000   180.000000     1.000000     0.000000     0.000000     0.500000     0.500000     0.500000

 ----------------------------------------------------------------------------- 
|                                                                             |
|           W    W    AA    RRRRR   N    N  II  N    N   GGGG   !!!           |
|           W    W   A  A   R    R  NN   N  II  NN   N  G    G  !!!           |
|           W    W  A    A  R    R  N N  N  II  N N  N  G       !!!           |
|           W WW W  AAAAAA  RRRRR   N  N N  II  N  N N  G  GGG   !            |
|           WW  WW  A    A  R   R   N   NN  II  N   NN  G    G                |
|           W    W  A    A  R    R  N    N  II  N    N   GGGG   !!!           |
|                                                                             |
|      Your generating k-point grid is not commensurate to the symmetry       |
|      of the lattice.  This can cause   slow convergence with respect        |
|      to k-points for HF type calculations                                   |
|      suggested SOLUTIONS:                                                   |
|       ) if not already the case, use automatic k-point generation           |
|       ) shift your grid to Gamma (G) (e.g. required for hex or fcc lattice) |
|                                                                             |
 ----------------------------------------------------------------------------- 

 
 Subroutine IBZKPT_HF returns following result:
 ==============================================
 
 Found    188 k-points in 1st BZ
 the following    188 k-points will be used (e.g. in the exchange kernel)
 Following reciprocal coordinates:   # in IRBZ
  0.000000  0.000000  0.000000    0.02083333   1 t-inv F
  0.250000  0.000000  0.000000    0.02083333   2 t-inv F
  0.500000  0.000000  0.000000    0.02083333   3 t-inv F
  0.000000  0.250000  0.000000    0.02083333   4 t-inv F
  0.250000  0.250000  0.000000    0.02083333   5 t-inv F
  0.500000  0.250000  0.000000    0.02083333   6 t-inv F
  0.000000  0.500000  0.000000    0.02083333   7 t-inv F
  0.250000  0.500000  0.000000    0.02083333   8 t-inv F
  0.500000  0.500000  0.000000    0.02083333   9 t-inv F
  0.000000  0.000000  0.333333    0.02083333  10 t-inv F
  0.250000  0.000000  0.333333    0.02083333  11 t-inv F
  0.500000  0.000000  0.333333    0.02083333  12 t-inv F
  0.000000  0.250000  0.333333    0.02083333  13 t-inv F
  0.250000  0.250000  0.333333    0.02083333  14 t-inv F
  0.500000  0.250000  0.333333    0.02083333  15 t-inv F
  0.000000  0.500000  0.333333    0.02083333  16 t-inv F
  0.250000  0.500000  0.333333    0.02083333  17 t-inv F
  0.500000  0.500000  0.333333    0.02083333  18 t-inv F
  0.000000  0.000000  0.000000    0.00000000  19 t-inv F
  0.041667  0.000000  0.000000    0.00000000  20 t-inv F
  0.083333  0.000000  0.000000    0.00000000  21 t-inv F
  0.125000  0.000000  0.000000    0.00000000  22 t-inv F
  0.166667  0.000000  0.000000    0.00000000  23 t-inv F
  0.208333  0.000000  0.000000    0.00000000  24 t-inv F
  0.250000  0.000000  0.000000    0.00000000  25 t-inv F
  0.291667  0.000000  0.000000    0.00000000  26 t-inv F
  0.333333  0.000000  0.000000    0.00000000  27 t-inv F
  0.375000  0.000000  0.000000    0.00000000  28 t-inv F
  0.416667  0.000000  0.000000    0.00000000  29 t-inv F
  0.458333  0.000000  0.000000    0.00000000  30 t-inv F
  0.500000  0.000000  0.000000    0.00000000  31 t-inv F
  0.500000  0.000000  0.000000    0.00000000  32 t-inv F
  0.500000  0.041667  0.000000    0.00000000  33 t-inv F
  0.500000  0.083333  0.000000    0.00000000  34 t-inv F
  0.500000  0.125000  0.000000    0.00000000  35 t-inv F
  0.500000  0.166667  0.000000    0.00000000  36 t-inv F
  0.500000  0.208333  0.000000    0.00000000  37 t-inv F
  0.500000  0.250000  0.000000    0.00000000  38 t-inv F
  0.500000  0.291667  0.000000    0.00000000  39 t-inv F
  0.500000  0.333333  0.000000    0.00000000  40 t-inv F
  0.500000  0.375000  0.000000    0.00000000  41 t-inv F
  0.500000  0.416667  0.000000    0.00000000  42 t-inv F
  0.500000  0.458333  0.000000    0.00000000  43 t-inv F
  0.500000  0.500000  0.000000    0.00000000  44 t-inv F
  0.500000  0.500000  0.000000    0.00000000  45 t-inv F
  0.458333  0.500000  0.000000    0.00000000  46 t-inv F
  0.416667  0.500000  0.000000    0.00000000  47 t-inv F
  0.375000  0.500000  0.000000    0.00000000  48 t-inv F
  0.333333  0.500000  0.000000    0.00000000  49 t-inv F
  0.291667  0.500000  0.000000    0.00000000  50 t-inv F
  0.250000  0.500000  0.000000    0.00000000  51 t-inv F
  0.208333  0.500000  0.000000    0.00000000  52 t-inv F
  0.166667  0.500000  0.000000    0.00000000  53 t-inv F
  0.125000  0.500000  0.000000    0.00000000  54 t-inv F
  0.083333  0.500000  0.000000    0.00000000  55 t-inv F
  0.041667  0.500000  0.000000    0.00000000  56 t-inv F
  0.000000  0.500000  0.000000    0.00000000  57 t-inv F
  0.000000  0.500000  0.000000    0.00000000  58 t-inv F
  0.000000  0.458333  0.000000    0.00000000  59 t-inv F
  0.000000  0.416667  0.000000    0.00000000  60 t-inv F
  0.000000  0.375000  0.000000    0.00000000  61 t-inv F
  0.000000  0.333333  0.000000    0.00000000  62 t-inv F
  0.000000  0.291667  0.000000    0.00000000  63 t-inv F
  0.000000  0.250000  0.000000    0.00000000  64 t-inv F
  0.000000  0.208333  0.000000    0.00000000  65 t-inv F
  0.000000  0.166667  0.000000    0.00000000  66 t-inv F
  0.000000  0.125000  0.000000    0.00000000  67 t-inv F
  0.000000  0.083333  0.000000    0.00000000  68 t-inv F
  0.000000  0.041667  0.000000    0.00000000  69 t-inv F
  0.000000  0.000000  0.000000    0.00000000  70 t-inv F
  0.000000  0.000000  0.000000    0.00000000  71 t-inv F
  0.000000  0.000000  0.062500    0.00000000  72 t-inv F
  0.000000  0.000000  0.125000    0.00000000  73 t-inv F
  0.000000  0.000000  0.187500    0.00000000  74 t-inv F
  0.000000  0.000000  0.250000    0.00000000  75 t-inv F
  0.000000  0.000000  0.312500    0.00000000  76 t-inv F
  0.000000  0.000000  0.375000    0.00000000  77 t-inv F
  0.000000  0.000000  0.437500    0.00000000  78 t-inv F
  0.000000  0.000000  0.500000    0.00000000  79 t-inv F
  0.000000  0.000000  0.500000    0.00000000  80 t-inv F
  0.041667  0.000000  0.500000    0.00000000  81 t-inv F
  0.083333  0.000000  0.500000    0.00000000  82 t-inv F
  0.125000  0.000000  0.500000    0.00000000  83 t-inv F
  0.166667  0.000000  0.500000    0.00000000  84 t-inv F
  0.208333  0.000000  0.500000    0.00000000  85 t-inv F
  0.250000  0.000000  0.500000    0.00000000  86 t-inv F
  0.291667  0.000000  0.500000    0.00000000  87 t-inv F
  0.333333  0.000000  0.500000    0.00000000  88 t-inv F
  0.375000  0.000000  0.500000    0.00000000  89 t-inv F
  0.416667  0.000000  0.500000    0.00000000  90 t-inv F
  0.458333  0.000000  0.500000    0.00000000  91 t-inv F
  0.500000  0.000000  0.500000    0.00000000  92 t-inv F
  0.500000  0.000000  0.500000    0.00000000  93 t-inv F
  0.500000  0.041667  0.500000    0.00000000  94 t-inv F
  0.500000  0.083333  0.500000    0.00000000  95 t-inv F
  0.500000  0.125000  0.500000    0.00000000  96 t-inv F
  0.500000  0.166667  0.500000    0.00000000  97 t-inv F
  0.500000  0.208333  0.500000    0.00000000  98 t-inv F
  0.500000  0.250000  0.500000    0.00000000  99 t-inv F
  0.500000  0.291667  0.500000    0.00000000 100 t-inv F
  0.500000  0.333333  0.500000    0.00000000 101 t-inv F
  0.500000  0.375000  0.500000    0.00000000 102 t-inv F
  0.500000  0.416667  0.500000    0.00000000 103 t-inv F
  0.500000  0.458333  0.500000    0.00000000 104 t-inv F
  0.500000  0.500000  0.500000    0.00000000 105 t-inv F
  0.500000  0.500000  0.500000    0.00000000 106 t-inv F
  0.458333  0.500000  0.500000    0.00000000 107 t-inv F
  0.416667  0.500000  0.500000    0.00000000 108 t-inv F
  0.375000  0.500000  0.500000    0.00000000 109 t-inv F
  0.333333  0.500000  0.500000    0.00000000 110 t-inv F
  0.291667  0.500000  0.500000    0.00000000 111 t-inv F
  0.250000  0.500000  0.500000    0.00000000 112 t-inv F
  0.208333  0.500000  0.500000    0.00000000 113 t-inv F
  0.166667  0.500000  0.500000    0.00000000 114 t-inv F
  0.125000  0.500000  0.500000    0.00000000 115 t-inv F
  0.083333  0.500000  0.500000    0.00000000 116 t-inv F
  0.041667  0.500000  0.500000    0.00000000 117 t-inv F
  0.000000  0.500000  0.500000    0.00000000 118 t-inv F
  0.000000  0.500000  0.500000    0.00000000 119 t-inv F
  0.000000  0.458333  0.500000    0.00000000 120 t-inv F
  0.000000  0.416667  0.500000    0.00000000 121 t-inv F
  0.000000  0.375000  0.500000    0.00000000 122 t-inv F
  0.000000  0.333333  0.500000    0.00000000 123 t-inv F
  0.000000  0.291667  0.500000    0.00000000 124 t-inv F
  0.000000  0.250000  0.500000    0.00000000 125 t-inv F
  0.000000  0.208333  0.500000    0.00000000 126 t-inv F
  0.000000  0.166667  0.500000    0.00000000 127 t-inv F
  0.000000  0.125000  0.500000    0.00000000 128 t-inv F
  0.000000  0.083333  0.500000    0.00000000 129 t-inv F
  0.000000  0.041667  0.500000    0.00000000 130 t-inv F
  0.000000  0.000000  0.500000    0.00000000 131 t-inv F
  0.500000  0.000000  0.000000    0.00000000 132 t-inv F
  0.500000  0.000000  0.062500    0.00000000 133 t-inv F
  0.500000  0.000000  0.125000    0.00000000 134 t-inv F
  0.500000  0.000000  0.187500    0.00000000 135 t-inv F
  0.500000  0.000000  0.250000    0.00000000 136 t-inv F
  0.500000  0.000000  0.312500    0.00000000 137 t-inv F
  0.500000  0.000000  0.375000    0.00000000 138 t-inv F
  0.500000  0.000000  0.437500    0.00000000 139 t-inv F
  0.500000  0.000000  0.500000    0.00000000 140 t-inv F
  0.000000  0.500000  0.000000    0.00000000 141 t-inv F
  0.000000  0.500000  0.062500    0.00000000 142 t-inv F
  0.000000  0.500000  0.125000    0.00000000 143 t-inv F
  0.000000  0.500000  0.187500    0.00000000 144 t-inv F
  0.000000  0.500000  0.250000    0.00000000 145 t-inv F
  0.000000  0.500000  0.312500    0.00000000 146 t-inv F
  0.000000  0.500000  0.375000    0.00000000 147 t-inv F
  0.000000  0.500000  0.437500    0.00000000 148 t-inv F
  0.000000  0.500000  0.500000    0.00000000 149 t-inv F
  0.500000  0.500000  0.000000    0.00000000 150 t-inv F
  0.500000  0.500000  0.062500    0.00000000 151 t-inv F
  0.500000  0.500000  0.125000    0.00000000 152 t-inv F
  0.500000  0.500000  0.187500    0.00000000 153 t-inv F
  0.500000  0.500000  0.250000    0.00000000 154 t-inv F
  0.500000  0.500000  0.312500    0.00000000 155 t-inv F
  0.500000  0.500000  0.375000    0.00000000 156 t-inv F
  0.500000  0.500000  0.437500    0.00000000 157 t-inv F
  0.500000  0.500000  0.500000    0.00000000 158 t-inv F
 -0.250000  0.000000  0.000000    0.02083333   2 t-inv F
  0.000000 -0.250000  0.000000    0.02083333   4 t-inv F
 -0.250000 -0.250000  0.000000    0.02083333   5 t-inv F
 -0.250000  0.250000  0.000000    0.02083333   5 t-inv F
  0.250000 -0.250000  0.000000    0.02083333   5 t-inv F
 -0.500000 -0.250000  0.000000    0.02083333   6 t-inv F
 -0.250000 -0.500000  0.000000    0.02083333   8 t-inv F
  0.000000  0.000000 -0.333333    0.02083333  10 t-inv F
 -0.250000  0.000000 -0.333333    0.02083333  11 t-inv F
 -0.250000  0.000000  0.333333    0.02083333  11 t-inv F
  0.250000  0.000000 -0.333333    0.02083333  11 t-inv F
 -0.500000  0.000000 -0.333333    0.02083333  12 t-inv F
  0.000000 -0.250000 -0.333333    0.02083333  13 t-inv F
  0.000000 -0.250000  0.333333    0.02083333  13 t-inv F
  0.000000  0.250000 -0.333333    0.02083333  13 t-inv F
 -0.250000 -0.250000 -0.333333    0.02083333  14 t-inv F
 -0.250000 -0.250000  0.333333    0.02083333  14 t-inv F
  0.250000  0.250000 -0.333333    0.02083333  14 t-inv F
 -0.250000  0.250000 -0.333333    0.02083333  14 t-inv F
  0.250000 -0.250000  0.333333    0.02083333  14 t-inv F
  0.250000 -0.250000 -0.333333    0.02083333  14 t-inv F
 -0.250000  0.250000  0.333333    0.02083333  14 t-inv F
 -0.500000 -0.250000 -0.333333    0.02083333  15 t-inv F
 -0.500000 -0.250000  0.333333    0.02083333  15 t-inv F
  0.500000  0.250000 -0.333333    0.02083333  15 t-inv F
  0.000000 -0.500000 -0.333333    0.02083333  16 t-inv F
 -0.250000 -0.500000 -0.333333    0.02083333  17 t-inv F
 -0.250000 -0.500000  0.333333    0.02083333  17 t-inv F
  0.250000  0.500000 -0.333333    0.02083333  17 t-inv F
 -0.500000 -0.500000 -0.333333    0.02083333  18 t-inv F


--------------------------------------------------------------------------------------------------------




 Dimension of arrays:
   k-points           NKPTS =    158   k-points in BZ     NKDIM =    188   number of bands    NBANDS=     80
   number of dos      NEDOS =    301   number of ions     NIONS =     20
   non local maximal  LDIM  =      8   non local SUM 2l+1 LMDIM =     32
   total plane-waves  NPLWV = 120960
   max r-space proj   IRMAX =   8437   max aug-charges    IRDMAX= 212404
   dimension x,y,z NGX =    42 NGY =   48 NGZ =   60
   dimension x,y,z NGXF=    84 NGYF=   96 NGZF=  120
   support grid    NGXF=   168 NGYF=  192 NGZF=  240
   ions per type =               4   4  12
   NGX,Y,Z   is equivalent  to a cutoff of  12.31, 13.94, 12.44 a.u.
   NGXF,Y,Z  is equivalent  to a cutoff of  24.62, 27.88, 24.89 a.u.

 SYSTEM =  matgen-band                             
 POSCAR =  La4 W4 N12                              

 Startparameter for this run:
   NWRITE =      2    write-flag & timer
   PREC   = accura    normal or accurate (medium, high low for compatibility)
   ISTART =      1    job   : 0-new  1-cont  2-samecut
   ICHARG =     11    charge: 1-file 2-atom 10-const
   ISPIN  =      1    spin polarized calculation?
   LNONCOLLINEAR =      F non collinear calculations
   LSORBIT =      F    spin-orbit coupling
   INIWAV =      1    electr: 0-lowe 1-rand  2-diag
   LASPH  =      F    aspherical Exc in radial PAW
   METAGGA=      F    non-selfconsistent MetaGGA calc.

 Electronic Relaxation 1
   ENCUT  =  520.0 eV  38.22 Ry    6.18 a.u.  10.55 10.64 14.91*2*pi/ulx,y,z
   ENINI  =  520.0     initial cutoff
   ENAUG  =  627.1 eV  augmentation charge cutoff
   NELM   =     60;   NELMIN=  6; NELMDL=  0     # of ELM steps 
   EDIFF  = 0.1E-02   stopping-criterion for ELM
   LREAL  =      T    real-space projection
   NLSPLINE    = F    spline interpolate recip. space projectors
   LCOMPAT=      F    compatible to vasp.4.4
   GGA_COMPAT  = T    GGA compatible to vasp.4.4-vasp.4.6
   LMAXPAW     = -100 max onsite density
   LMAXMIX     =    2 max onsite mixed and CHGCAR
   VOSKOWN=      0    Vosko Wilk Nusair interpolation
   ROPT   =   -0.00025  -0.00025  -0.00025
 Ionic relaxation
   EDIFFG = -.1E-01   stopping-criterion for IOM
   NSW    =      0    number of steps for IOM
   NBLOCK =      1;   KBLOCK =      1    inner block; outer block 
   IBRION =     -1    ionic relax: 0-MD 1-quasi-New 2-CG
   NFREE  =      0    steps in history (QN), initial steepest desc. (CG)
   ISIF   =      0    stress and relaxation
   IWAVPR =     10    prediction:  0-non 1-charg 2-wave 3-comb
   ISYM   =      3    0-nonsym 1-usesym 2-fastsym
   LCORR  =      T    Harris-Foulkes like correction to forces

   POTIM  = 0.0500    time-step for ionic-motion
   TEIN   =    0.0    initial temperature
   TEBEG  =    0.0;   TEEND  =   0.0 temperature during run
   SMASS  =  -3.00    Nose mass-parameter (am)
   estimated Nose-frequenzy (Omega)   =  0.10E-29 period in steps =****** mass=  -0.735E-27a.u.
   SCALEE = 1.0000    scale energy and forces
   NPACO  =    256;   APACO  = 16.0  distance and # of slots for P.C.
   PSTRESS=    0.0 pullay stress

  Mass of Ions in am
   POMASS = 138.90183.85 14.00
  Ionic Valenz
   ZVAL   =  11.00  6.00  5.00
  Atomic Wigner-Seitz radii
   RWIGS  =  -1.00 -1.00 -1.00
  virtual crystal weights 
   VCA    =   1.00  1.00  1.00
   NELECT =     128.0000    total number of electrons
   NUPDOWN=      -1.0000    fix difference up-down

 DOS related values:
   EMIN   =  10.00;   EMAX   =-10.00  energy-range for DOS
   EFERMI =   0.00
   ISMEAR =     0;   SIGMA  =   0.05  broadening in eV -4-tet -1-fermi 0-gaus

 Electronic relaxation 2 (details)
   IALGO  =     53    algorithm
   LDIAG  =      T    sub-space diagonalisation (order eigenvalues)
   LSUBROT=      F    optimize rotation matrix (better conditioning)
   TURBO    =      0    0=normal 1=particle mesh
   IRESTART =      0    0=no restart 2=restart with 2 vectors
   NREBOOT  =      0    no. of reboots
   NMIN     =      0    reboot dimension
   EREF     =   0.00    reference energy to select bands
   IMIX   =      4    mixing-type and parameters
     AMIX     =   0.10;   BMIX     =  1.20
     AMIX_MAG =   0.40;   BMIX_MAG =  1.20
     AMIN     =   0.10
     WC   =   100.;   INIMIX=   1;  MIXPRE=   1;  MAXMIX= -45

 Intra band minimization:
   WEIMIN = 0.0000     energy-eigenvalue tresh-hold
   EBREAK =  0.31E-05  absolut break condition
   DEPER  =   0.30     relativ break condition  

   TIME   =   0.40     timestep for ELM

  volume/ion in A,a.u.               =      13.01        87.82
  Fermi-wavevector in a.u.,A,eV,Ry     =   1.292229  2.441958 22.719758  1.669855
  Thomas-Fermi vector in A             =   2.423950
 
 Write flags
   LWAVE        =      F    write WAVECAR
   LDOWNSAMPLE  =      F    k-point downsampling of WAVECAR
   LCHARG       =      T    write CHGCAR
   LVTOT        =      F    write LOCPOT, total local potential
   LVHAR        =      F    write LOCPOT, Hartree potential only
   LELF         =      F    write electronic localiz. function (ELF)
   LORBIT       =     11    0 simple, 1 ext, 2 COOP (PROOUT), +10 PAW based schemes


 Dipole corrections
   LMONO  =      F    monopole corrections only (constant potential shift)
   LDIPOL =      F    correct potential (dipole corrections)
   IDIPOL =      0    1-x, 2-y, 3-z, 4-all directions 
   EPSILON=  1.0000000 bulk dielectric constant

 Exchange correlation treatment:
   GGA     =    --    GGA type
   LEXCH   =     8    internal setting for exchange type
   VOSKOWN=      0    Vosko Wilk Nusair interpolation
   EXXOEP  =     0    0=HF, 1=EXX-LHF (local Hartree Fock) 2=EXX OEP
   LHFCALC =     T    Hartree Fock is set to
   LSYMGRAD=     F    symmetrize gradient (conserves proper symmetry)
   PRECFOCK=normal    Normal, Fast or Accurate (Low or Medium for compatibility)
   LRHFCALC=     F    long range Hartree Fock
   LRSCOR  =     F    long range correlation only (use DFT for short range part)
   LTHOMAS =     F    Thomas Fermi screening in HF
   LMODELHF=     F    short range full HF, long range fraction AEXX
   ENCUT4O =  -1.0   cutoff for four orbital integrals eV
   LMAXFOCK=     4    L truncation for augmentation on plane wave grid
   LMAXFOCKAE=  -1    L truncation for all-electron charge restoration on plane wave grid
   NMAXFOCKAE=   1    number of basis functions for all-electron charge restoration
   LFOCKAEDFT=     F  apply the AE augmentation even for DFT
   NKREDX  =     1    reduce k-point grid by
   NKREDY  =     1    reduce k-point grid by
   NKREDZ  =     1    reduce k-point grid by
   SHIFTRED=     F    shift reduced grid of Gamma
   HFKIDENT=     F    idential grid for each k-point
   ODDONLY =     F    use only odd q-grid points
   EVENONLY=     F    use only even q-grid points
   HFALPHA =   -1.0000 decay constant for conv. correction
   MCALPHA =    0.0000 extent of test-charge in conv. correction in multipole expansion
   AEXX    =    0.2500 exact exchange contribution
   HFSCREEN=    0.2000 screening length (either q_TF or 0.3 A-1)
   HFSCREENC=   0.2000 screening length for correlation (either q_TF or 0.3 A-1)
   HFRCUT  =    0.0000 spherical cutoff for potential kernel
   ALDAX   =    0.7500 LDA exchange part
   AGGAX   =    0.7500 GGA exchange part
   ALDAC   =    1.0000 LDA correlation
   AGGAC   =    1.0000 GGA correlation
   ENCUTFOCK=  -1.0 apply spherical cutoff to Coloumb kernel
   NBANDSGWLOW=     1    first orbital included in HF term
   NBLOCK_FOCK=    64    blocking factor in FOCK_ACC
 Linear response parameters
   LEPSILON=     F    determine dielectric tensor
   LRPA    =     F    only Hartree local field effects (RPA)
   LNABLA  =     F    use nabla operator in PAW spheres
   LVEL    =     F    velocity operator in full k-point grid
   LINTERFAST=   F  fast interpolation
   KINTER  =     0    interpolate to denser k-point grid
   CSHIFT  =0.1000    complex shift for real part using Kramers Kronig
   OMEGAMAX=  -1.0    maximum frequency
   DEG_THRESHOLD= 0.2000000E-02 threshold for treating states as degnerate
   RTIME   =   -0.100 relaxation time in fs
  (WPLASMAI=    0.000 imaginary part of plasma frequency in eV, 0.658/RTIME)
   DFIELD  = 0.0000000 0.0000000 0.0000000 field for delta impulse in time
 
 Orbital magnetization related:
   ORBITALMAG=     F  switch on orbital magnetization
   LCHIMAG   =     F  perturbation theory with respect to B field
   DQ        =  0.001000  dq finite difference perturbation B field
   LLRAUG    =     F  two centre corrections for induced B field



--------------------------------------------------------------------------------------------------------


 Static calculation
 charge density and potential remain constant during run
 non-spin polarized calculation
 Conjugate gradient for all bands (Freysoldt, et al. PRB 79, 241103 (2009))
 perform sub-space diagonalisation
    before iterative eigenvector-optimisation
 no mixing
 using additional bands           16
 real space projection scheme for non local part
 use partial core corrections
 calculate Harris-corrections to forces 
   (improved forces if not selfconsistent)
 use gradient corrections 
 WARNING: stress and forces are not correct
  (second derivative of E(xc) not defined)
 use of overlap-Matrix (Vanderbilt PP)
 Gauss-broadening in eV      SIGMA  =   0.05


--------------------------------------------------------------------------------------------------------


  energy-cutoff  :      520.00
  volume of cell :      260.27
      direct lattice vectors                 reciprocal lattice vectors
     5.672077681  0.000000000  0.000000000     0.176302240  0.000000000  0.000000000
     0.000000000  5.723819950  0.000000000     0.000000000  0.174708500  0.000000000
     0.000000000  0.000000000  8.016561598     0.000000000  0.000000000  0.124741760

  length of vectors
     5.672077681  5.723819950  8.016561598     0.176302240  0.174708500  0.124741760


 
 old parameters found on file WAVECAR:
  energy-cutoff  :      520.00
  volume of cell :      260.27
      direct lattice vectors                 reciprocal lattice vectors
     5.672077681  0.000000000  0.000000000     0.176302240  0.000000000  0.000000000
     0.000000000  5.723819950  0.000000000     0.000000000  0.174708500  0.000000000
     0.000000000  0.000000000  8.016561598     0.000000000  0.000000000  0.124741760

  length of vectors

 
 k-points in units of 2pi/SCALE and weight: 0.040   4   4   3   18  0.040  140   12 
   0.00000000  0.00000000  0.00000000       0.021
   0.04407556  0.00000000  0.00000000       0.042
   0.08815112  0.00000000  0.00000000       0.021
   0.00000000  0.04367713  0.00000000       0.042
   0.04407556  0.04367713  0.00000000       0.083
   0.08815112  0.04367713  0.00000000       0.042
   0.00000000  0.08735425  0.00000000       0.021
   0.04407556  0.08735425  0.00000000       0.042
   0.08815112  0.08735425  0.00000000       0.021
   0.00000000  0.00000000  0.04158059       0.042
   0.04407556  0.00000000  0.04158059       0.083
   0.08815112  0.00000000  0.04158059       0.042
   0.00000000  0.04367713  0.04158059       0.083
   0.04407556  0.04367713  0.04158059       0.167
   0.08815112  0.04367713  0.04158059       0.083
   0.00000000  0.08735425  0.04158059       0.042
   0.04407556  0.08735425  0.04158059       0.083
   0.08815112  0.08735425  0.04158059       0.042
   0.00000000  0.00000000  0.00000000       0.000
   0.00734593  0.00000000  0.00000000       0.000
   0.01469185  0.00000000  0.00000000       0.000
   0.02203778  0.00000000  0.00000000       0.000
   0.02938371  0.00000000  0.00000000       0.000
   0.03672963  0.00000000  0.00000000       0.000
   0.04407556  0.00000000  0.00000000       0.000
   0.05142149  0.00000000  0.00000000       0.000
   0.05876741  0.00000000  0.00000000       0.000
   0.06611334  0.00000000  0.00000000       0.000
   0.07345927  0.00000000  0.00000000       0.000
   0.08080519  0.00000000  0.00000000       0.000
   0.08815112  0.00000000  0.00000000       0.000
   0.08815112  0.00000000  0.00000000       0.000
   0.08815112  0.00727952  0.00000000       0.000
   0.08815112  0.01455904  0.00000000       0.000
   0.08815112  0.02183856  0.00000000       0.000
   0.08815112  0.02911808  0.00000000       0.000
   0.08815112  0.03639760  0.00000000       0.000
   0.08815112  0.04367713  0.00000000       0.000
   0.08815112  0.05095665  0.00000000       0.000
   0.08815112  0.05823617  0.00000000       0.000
   0.08815112  0.06551569  0.00000000       0.000
   0.08815112  0.07279521  0.00000000       0.000
   0.08815112  0.08007473  0.00000000       0.000
   0.08815112  0.08735425  0.00000000       0.000
   0.08815112  0.08735425  0.00000000       0.000
   0.08080519  0.08735425  0.00000000       0.000
   0.07345927  0.08735425  0.00000000       0.000
   0.06611334  0.08735425  0.00000000       0.000
   0.05876741  0.08735425  0.00000000       0.000
   0.05142149  0.08735425  0.00000000       0.000
   0.04407556  0.08735425  0.00000000       0.000
   0.03672963  0.08735425  0.00000000       0.000
   0.02938371  0.08735425  0.00000000       0.000
   0.02203778  0.08735425  0.00000000       0.000
   0.01469185  0.08735425  0.00000000       0.000
   0.00734593  0.08735425  0.00000000       0.000
   0.00000000  0.08735425  0.00000000       0.000
   0.00000000  0.08735425  0.00000000       0.000
   0.00000000  0.08007473  0.00000000       0.000
   0.00000000  0.07279521  0.00000000       0.000
   0.00000000  0.06551569  0.00000000       0.000
   0.00000000  0.05823617  0.00000000       0.000
   0.00000000  0.05095665  0.00000000       0.000
   0.00000000  0.04367713  0.00000000       0.000
   0.00000000  0.03639760  0.00000000       0.000
   0.00000000  0.02911808  0.00000000       0.000
   0.00000000  0.02183856  0.00000000       0.000
   0.00000000  0.01455904  0.00000000       0.000
   0.00000000  0.00727952  0.00000000       0.000
   0.00000000  0.00000000  0.00000000       0.000
   0.00000000  0.00000000  0.00000000       0.000
   0.00000000  0.00000000  0.00779636       0.000
   0.00000000  0.00000000  0.01559272       0.000
   0.00000000  0.00000000  0.02338908       0.000
   0.00000000  0.00000000  0.03118544       0.000
   0.00000000  0.00000000  0.03898180       0.000
   0.00000000  0.00000000  0.04677816       0.000
   0.00000000  0.00000000  0.05457452       0.000
   0.00000000  0.00000000  0.06237088       0.000
   0.00000000  0.00000000  0.06237088       0.000
   0.00734593  0.00000000  0.06237088       0.000
   0.01469185  0.00000000  0.06237088       0.000
   0.02203778  0.00000000  0.06237088       0.000
   0.02938371  0.00000000  0.06237088       0.000
   0.03672963  0.00000000  0.06237088       0.000
   0.04407556  0.00000000  0.06237088       0.000
   0.05142149  0.00000000  0.06237088       0.000
   0.05876741  0.00000000  0.06237088       0.000
   0.06611334  0.00000000  0.06237088       0.000
   0.07345927  0.00000000  0.06237088       0.000
   0.08080519  0.00000000  0.06237088       0.000
   0.08815112  0.00000000  0.06237088       0.000
   0.08815112  0.00000000  0.06237088       0.000
   0.08815112  0.00727952  0.06237088       0.000
   0.08815112  0.01455904  0.06237088       0.000
   0.08815112  0.02183856  0.06237088       0.000
   0.08815112  0.02911808  0.06237088       0.000
   0.08815112  0.03639760  0.06237088       0.000
   0.08815112  0.04367713  0.06237088       0.000
   0.08815112  0.05095665  0.06237088       0.000
   0.08815112  0.05823617  0.06237088       0.000
   0.08815112  0.06551569  0.06237088       0.000
   0.08815112  0.07279521  0.06237088       0.000
   0.08815112  0.08007473  0.06237088       0.000
   0.08815112  0.08735425  0.06237088       0.000
   0.08815112  0.08735425  0.06237088       0.000
   0.08080519  0.08735425  0.06237088       0.000
   0.07345927  0.08735425  0.06237088       0.000
   0.06611334  0.08735425  0.06237088       0.000
   0.05876741  0.08735425  0.06237088       0.000
   0.05142149  0.08735425  0.06237088       0.000
   0.04407556  0.08735425  0.06237088       0.000
   0.03672963  0.08735425  0.06237088       0.000
   0.02938371  0.08735425  0.06237088       0.000
   0.02203778  0.08735425  0.06237088       0.000
   0.01469185  0.08735425  0.06237088       0.000
   0.00734593  0.08735425  0.06237088       0.000
   0.00000000  0.08735425  0.06237088       0.000
   0.00000000  0.08735425  0.06237088       0.000
   0.00000000  0.08007473  0.06237088       0.000
   0.00000000  0.07279521  0.06237088       0.000
   0.00000000  0.06551569  0.06237088       0.000
   0.00000000  0.05823617  0.06237088       0.000
   0.00000000  0.05095665  0.06237088       0.000
   0.00000000  0.04367713  0.06237088       0.000
   0.00000000  0.03639760  0.06237088       0.000
   0.00000000  0.02911808  0.06237088       0.000
   0.00000000  0.02183856  0.06237088       0.000
   0.00000000  0.01455904  0.06237088       0.000
   0.00000000  0.00727952  0.06237088       0.000
   0.00000000  0.00000000  0.06237088       0.000
   0.08815112  0.00000000  0.00000000       0.000
   0.08815112  0.00000000  0.00779636       0.000
   0.08815112  0.00000000  0.01559272       0.000
   0.08815112  0.00000000  0.02338908       0.000
   0.08815112  0.00000000  0.03118544       0.000
   0.08815112  0.00000000  0.03898180       0.000
   0.08815112  0.00000000  0.04677816       0.000
   0.08815112  0.00000000  0.05457452       0.000
   0.08815112  0.00000000  0.06237088       0.000
   0.00000000  0.08735425  0.00000000       0.000
   0.00000000  0.08735425  0.00779636       0.000
   0.00000000  0.08735425  0.01559272       0.000
   0.00000000  0.08735425  0.02338908       0.000
   0.00000000  0.08735425  0.03118544       0.000
   0.00000000  0.08735425  0.03898180       0.000
   0.00000000  0.08735425  0.04677816       0.000
   0.00000000  0.08735425  0.05457452       0.000
   0.00000000  0.08735425  0.06237088       0.000
   0.08815112  0.08735425  0.00000000       0.000
   0.08815112  0.08735425  0.00779636       0.000
   0.08815112  0.08735425  0.01559272       0.000
   0.08815112  0.08735425  0.02338908       0.000
   0.08815112  0.08735425  0.03118544       0.000
   0.08815112  0.08735425  0.03898180       0.000
   0.08815112  0.08735425  0.04677816       0.000
   0.08815112  0.08735425  0.05457452       0.000
   0.08815112  0.08735425  0.06237088       0.000
 
 k-points in reciprocal lattice and weights: 0.040   4   4   3   18  0.040  140   12 
   0.00000000  0.00000000  0.00000000       0.021
   0.25000000  0.00000000  0.00000000       0.042
   0.50000000  0.00000000  0.00000000       0.021
   0.00000000  0.25000000  0.00000000       0.042
   0.25000000  0.25000000  0.00000000       0.083
   0.50000000  0.25000000  0.00000000       0.042
   0.00000000  0.50000000  0.00000000       0.021
   0.25000000  0.50000000  0.00000000       0.042
   0.50000000  0.50000000  0.00000000       0.021
   0.00000000  0.00000000  0.33333333       0.042
   0.25000000  0.00000000  0.33333333       0.083
   0.50000000  0.00000000  0.33333333       0.042
   0.00000000  0.25000000  0.33333333       0.083
   0.25000000  0.25000000  0.33333333       0.167
   0.50000000  0.25000000  0.33333333       0.083
   0.00000000  0.50000000  0.33333333       0.042
   0.25000000  0.50000000  0.33333333       0.083
   0.50000000  0.50000000  0.33333333       0.042
   0.00000000  0.00000000  0.00000000       0.000
   0.04166667  0.00000000  0.00000000       0.000
   0.08333333  0.00000000  0.00000000       0.000
   0.12500000  0.00000000  0.00000000       0.000
   0.16666667  0.00000000  0.00000000       0.000
   0.20833333  0.00000000  0.00000000       0.000
   0.25000000  0.00000000  0.00000000       0.000
   0.29166667  0.00000000  0.00000000       0.000
   0.33333333  0.00000000  0.00000000       0.000
   0.37500000  0.00000000  0.00000000       0.000
   0.41666667  0.00000000  0.00000000       0.000
   0.45833333  0.00000000  0.00000000       0.000
   0.50000000  0.00000000  0.00000000       0.000
   0.50000000  0.00000000  0.00000000       0.000
   0.50000000  0.04166667  0.00000000       0.000
   0.50000000  0.08333333  0.00000000       0.000
   0.50000000  0.12500000  0.00000000       0.000
   0.50000000  0.16666667  0.00000000       0.000
   0.50000000  0.20833333  0.00000000       0.000
   0.50000000  0.25000000  0.00000000       0.000
   0.50000000  0.29166667  0.00000000       0.000
   0.50000000  0.33333333  0.00000000       0.000
   0.50000000  0.37500000  0.00000000       0.000
   0.50000000  0.41666667  0.00000000       0.000
   0.50000000  0.45833333  0.00000000       0.000
   0.50000000  0.50000000  0.00000000       0.000
   0.50000000  0.50000000  0.00000000       0.000
   0.45833333  0.50000000  0.00000000       0.000
   0.41666667  0.50000000  0.00000000       0.000
   0.37500000  0.50000000  0.00000000       0.000
   0.33333333  0.50000000  0.00000000       0.000
   0.29166667  0.50000000  0.00000000       0.000
   0.25000000  0.50000000  0.00000000       0.000
   0.20833333  0.50000000  0.00000000       0.000
   0.16666667  0.50000000  0.00000000       0.000
   0.12500000  0.50000000  0.00000000       0.000
   0.08333333  0.50000000  0.00000000       0.000
   0.04166667  0.50000000  0.00000000       0.000
   0.00000000  0.50000000  0.00000000       0.000
   0.00000000  0.50000000  0.00000000       0.000
   0.00000000  0.45833333  0.00000000       0.000
   0.00000000  0.41666667  0.00000000       0.000
   0.00000000  0.37500000  0.00000000       0.000
   0.00000000  0.33333333  0.00000000       0.000
   0.00000000  0.29166667  0.00000000       0.000
   0.00000000  0.25000000  0.00000000       0.000
   0.00000000  0.20833333  0.00000000       0.000
   0.00000000  0.16666667  0.00000000       0.000
   0.00000000  0.12500000  0.00000000       0.000
   0.00000000  0.08333333  0.00000000       0.000
   0.00000000  0.04166667  0.00000000       0.000
   0.00000000  0.00000000  0.00000000       0.000
   0.00000000  0.00000000  0.00000000       0.000
   0.00000000  0.00000000  0.06250000       0.000
   0.00000000  0.00000000  0.12500000       0.000
   0.00000000  0.00000000  0.18750000       0.000
   0.00000000  0.00000000  0.25000000       0.000
   0.00000000  0.00000000  0.31250000       0.000
   0.00000000  0.00000000  0.37500000       0.000
   0.00000000  0.00000000  0.43750000       0.000
   0.00000000  0.00000000  0.50000000       0.000
   0.00000000  0.00000000  0.50000000       0.000
   0.04166667  0.00000000  0.50000000       0.000
   0.08333333  0.00000000  0.50000000       0.000
   0.12500000  0.00000000  0.50000000       0.000
   0.16666667  0.00000000  0.50000000       0.000
   0.20833333  0.00000000  0.50000000       0.000
   0.25000000  0.00000000  0.50000000       0.000
   0.29166667  0.00000000  0.50000000       0.000
   0.33333333  0.00000000  0.50000000       0.000
   0.37500000  0.00000000  0.50000000       0.000
   0.41666667  0.00000000  0.50000000       0.000
   0.45833333  0.00000000  0.50000000       0.000
   0.50000000  0.00000000  0.50000000       0.000
   0.50000000  0.00000000  0.50000000       0.000
   0.50000000  0.04166667  0.50000000       0.000
   0.50000000  0.08333333  0.50000000       0.000
   0.50000000  0.12500000  0.50000000       0.000
   0.50000000  0.16666667  0.50000000       0.000
   0.50000000  0.20833333  0.50000000       0.000
   0.50000000  0.25000000  0.50000000       0.000
   0.50000000  0.29166667  0.50000000       0.000
   0.50000000  0.33333333  0.50000000       0.000
   0.50000000  0.37500000  0.50000000       0.000
   0.50000000  0.41666667  0.50000000       0.000
   0.50000000  0.45833333  0.50000000       0.000
   0.50000000  0.50000000  0.50000000       0.000
   0.50000000  0.50000000  0.50000000       0.000
   0.45833333  0.50000000  0.50000000       0.000
   0.41666667  0.50000000  0.50000000       0.000
   0.37500000  0.50000000  0.50000000       0.000
   0.33333333  0.50000000  0.50000000       0.000
   0.29166667  0.50000000  0.50000000       0.000
   0.25000000  0.50000000  0.50000000       0.000
   0.20833333  0.50000000  0.50000000       0.000
   0.16666667  0.50000000  0.50000000       0.000
   0.12500000  0.50000000  0.50000000       0.000
   0.08333333  0.50000000  0.50000000       0.000
   0.04166667  0.50000000  0.50000000       0.000
   0.00000000  0.50000000  0.50000000       0.000
   0.00000000  0.50000000  0.50000000       0.000
   0.00000000  0.45833333  0.50000000       0.000
   0.00000000  0.41666667  0.50000000       0.000
   0.00000000  0.37500000  0.50000000       0.000
   0.00000000  0.33333333  0.50000000       0.000
   0.00000000  0.29166667  0.50000000       0.000
   0.00000000  0.25000000  0.50000000       0.000
   0.00000000  0.20833333  0.50000000       0.000
   0.00000000  0.16666667  0.50000000       0.000
   0.00000000  0.12500000  0.50000000       0.000
   0.00000000  0.08333333  0.50000000       0.000
   0.00000000  0.04166667  0.50000000       0.000
   0.00000000  0.00000000  0.50000000       0.000
   0.50000000  0.00000000  0.00000000       0.000
   0.50000000  0.00000000  0.06250000       0.000
   0.50000000  0.00000000  0.12500000       0.000
   0.50000000  0.00000000  0.18750000       0.000
   0.50000000  0.00000000  0.25000000       0.000
   0.50000000  0.00000000  0.31250000       0.000
   0.50000000  0.00000000  0.37500000       0.000
   0.50000000  0.00000000  0.43750000       0.000
   0.50000000  0.00000000  0.50000000       0.000
   0.00000000  0.50000000  0.00000000       0.000
   0.00000000  0.50000000  0.06250000       0.000
   0.00000000  0.50000000  0.12500000       0.000
   0.00000000  0.50000000  0.18750000       0.000
   0.00000000  0.50000000  0.25000000       0.000
   0.00000000  0.50000000  0.31250000       0.000
   0.00000000  0.50000000  0.37500000       0.000
   0.00000000  0.50000000  0.43750000       0.000
   0.00000000  0.50000000  0.50000000       0.000
   0.50000000  0.50000000  0.00000000       0.000
   0.50000000  0.50000000  0.06250000       0.000
   0.50000000  0.50000000  0.12500000       0.000
   0.50000000  0.50000000  0.18750000       0.000
   0.50000000  0.50000000  0.25000000       0.000
   0.50000000  0.50000000  0.31250000       0.000
   0.50000000  0.50000000  0.37500000       0.000
   0.50000000  0.50000000  0.43750000       0.000
   0.50000000  0.50000000  0.50000000       0.000
 
 position of ions in fractional coordinates (direct lattice) 
   0.49079597  0.00241923  0.25000000
   0.99079597  0.49758077  0.25000000
   0.50920403  0.99758077  0.75000000
   0.00920403  0.50241923  0.75000000
   0.50000000  0.50000000  0.00000000
   0.00000000  0.00000000  0.50000000
   0.50000000  0.50000000  0.50000000
   0.00000000  0.00000000  0.00000000
   0.23821864  0.25990452  0.47104598
   0.73821864  0.24009548  0.02895402
   0.76178136  0.74009548  0.97104598
   0.26178136  0.75990452  0.52895402
   0.76178136  0.74009548  0.52895402
   0.26178136  0.75990452  0.97104598
   0.23821864  0.25990452  0.02895402
   0.73821864  0.24009548  0.47104598
   0.50204005  0.55544281  0.25000000
   0.00204005  0.94455719  0.25000000
   0.49795995  0.44455719  0.75000000
   0.99795995  0.05544281  0.75000000
 
 position of ions in cartesian coordinates  (Angst):
   2.78383289  0.01384721  2.00414040
   5.61987173  2.84806277  2.00414040
   2.88824479  5.70997274  6.01242120
   0.05220595  2.87575718  6.01242120
   2.83603884  2.86190997  0.00000000
   0.00000000  0.00000000  4.00828080
   2.83603884  2.86190997  4.00828080
   0.00000000  0.00000000  0.00000000
   1.35119461  1.48764670  3.77616911
   4.18723345  1.37426327  0.23211169
   4.32088307  4.23617325  7.78444991
   1.48484423  4.34955667  4.24039249
   4.32088307  4.23617325  4.24039249
   1.48484423  4.34955667  7.78444991
   1.35119461  1.48764670  0.23211169
   4.18723345  1.37426327  3.77616911
   2.84761019  3.17925466  2.00414040
   0.01157135  5.40647527  2.00414040
   2.82446749  2.54456529  6.01242120
   5.66050633  0.31734468  6.01242120
 


--------------------------------------------------------------------------------------------------------


 k-point  1 :   0.0000 0.0000 0.0000  plane waves:    6989
 k-point  2 :   0.2500 0.0000 0.0000  plane waves:    7009
 k-point  3 :   0.5000 0.0000 0.0000  plane waves:    7014
 k-point  4 :   0.0000 0.2500 0.0000  plane waves:    7029
 k-point  5 :   0.2500 0.2500 0.0000  plane waves:    7008
 k-point  6 :   0.5000 0.2500 0.0000  plane waves:    6976
 k-point  7 :   0.0000 0.5000 0.0000  plane waves:    7018
 k-point  8 :   0.2500 0.5000 0.0000  plane waves:    6984
 k-point  9 :   0.5000 0.5000 0.0000  plane waves:    7008
 k-point 10 :   0.0000 0.0000 0.3333  plane waves:    7018
 k-point 11 :   0.2500 0.0000 0.3333  plane waves:    7004
 k-point 12 :   0.5000 0.0000 0.3333  plane waves:    7018
 k-point 13 :   0.0000 0.2500 0.3333  plane waves:    7017
 k-point 14 :   0.2500 0.2500 0.3333  plane waves:    7004
 k-point 15 :   0.5000 0.2500 0.3333  plane waves:    7012
 k-point 16 :   0.0000 0.5000 0.3333  plane waves:    7024
 k-point 17 :   0.2500 0.5000 0.3333  plane waves:    7016
 k-point 18 :   0.5000 0.5000 0.3333  plane waves:    6972
 k-point 19 :   0.0000 0.0000 0.0000  plane waves:    6989
 k-point 20 :   0.0417 0.0000 0.0000  plane waves:    6997
 k-point 21 :   0.0833 0.0000 0.0000  plane waves:    6995
 k-point 22 :   0.1250 0.0000 0.0000  plane waves:    6997
 k-point 23 :   0.1667 0.0000 0.0000  plane waves:    7009
 k-point 24 :   0.2083 0.0000 0.0000  plane waves:    7019
 k-point 25 :   0.2500 0.0000 0.0000  plane waves:    7009
 k-point 26 :   0.2917 0.0000 0.0000  plane waves:    7017
 k-point 27 :   0.3333 0.0000 0.0000  plane waves:    7023
 k-point 28 :   0.3750 0.0000 0.0000  plane waves:    7013
 k-point 29 :   0.4167 0.0000 0.0000  plane waves:    7031
 k-point 30 :   0.4583 0.0000 0.0000  plane waves:    7014
 k-point 31 :   0.5000 0.0000 0.0000  plane waves:    7014
 k-point 32 :   0.5000 0.0000 0.0000  plane waves:    7014
 k-point 33 :   0.5000 0.0417 0.0000  plane waves:    7006
 k-point 34 :   0.5000 0.0833 0.0000  plane waves:    7012
 k-point 35 :   0.5000 0.1250 0.0000  plane waves:    7012
 k-point 36 :   0.5000 0.1667 0.0000  plane waves:    6992
 k-point 37 :   0.5000 0.2083 0.0000  plane waves:    6992
 k-point 38 :   0.5000 0.2500 0.0000  plane waves:    6976
 k-point 39 :   0.5000 0.2917 0.0000  plane waves:    6984
 k-point 40 :   0.5000 0.3333 0.0000  plane waves:    6978
 k-point 41 :   0.5000 0.3750 0.0000  plane waves:    6976
 k-point 42 :   0.5000 0.4167 0.0000  plane waves:    6980
 k-point 43 :   0.5000 0.4583 0.0000  plane waves:    7004
 k-point 44 :   0.5000 0.5000 0.0000  plane waves:    7008
 k-point 45 :   0.5000 0.5000 0.0000  plane waves:    7008
 k-point 46 :   0.4583 0.5000 0.0000  plane waves:    6988
 k-point 47 :   0.4167 0.5000 0.0000  plane waves:    6984
 k-point 48 :   0.3750 0.5000 0.0000  plane waves:    6976
 k-point 49 :   0.3333 0.5000 0.0000  plane waves:    6972
 k-point 50 :   0.2917 0.5000 0.0000  plane waves:    6988
 k-point 51 :   0.2500 0.5000 0.0000  plane waves:    6984
 k-point 52 :   0.2083 0.5000 0.0000  plane waves:    6994
 k-point 53 :   0.1667 0.5000 0.0000  plane waves:    7010
 k-point 54 :   0.1250 0.5000 0.0000  plane waves:    7026
 k-point 55 :   0.0833 0.5000 0.0000  plane waves:    7018
 k-point 56 :   0.0417 0.5000 0.0000  plane waves:    7010
 k-point 57 :   0.0000 0.5000 0.0000  plane waves:    7018
 k-point 58 :   0.0000 0.5000 0.0000  plane waves:    7018
 k-point 59 :   0.0000 0.4583 0.0000  plane waves:    7008
 k-point 60 :   0.0000 0.4167 0.0000  plane waves:    7024
 k-point 61 :   0.0000 0.3750 0.0000  plane waves:    7016
 k-point 62 :   0.0000 0.3333 0.0000  plane waves:    7011
 k-point 63 :   0.0000 0.2917 0.0000  plane waves:    7017
 k-point 64 :   0.0000 0.2500 0.0000  plane waves:    7029
 k-point 65 :   0.0000 0.2083 0.0000  plane waves:    7027
 k-point 66 :   0.0000 0.1667 0.0000  plane waves:    7017
 k-point 67 :   0.0000 0.1250 0.0000  plane waves:    7003
 k-point 68 :   0.0000 0.0833 0.0000  plane waves:    7017
 k-point 69 :   0.0000 0.0417 0.0000  plane waves:    7003
 k-point 70 :   0.0000 0.0000 0.0000  plane waves:    6989
 k-point 71 :   0.0000 0.0000 0.0000  plane waves:    6989
 k-point 72 :   0.0000 0.0000 0.0625  plane waves:    6975
 k-point 73 :   0.0000 0.0000 0.1250  plane waves:    6988
 k-point 74 :   0.0000 0.0000 0.1875  plane waves:    7012
 k-point 75 :   0.0000 0.0000 0.2500  plane waves:    7006
 k-point 76 :   0.0000 0.0000 0.3125  plane waves:    7022
 k-point 77 :   0.0000 0.0000 0.3750  plane waves:    7026
 k-point 78 :   0.0000 0.0000 0.4375  plane waves:    7026
 k-point 79 :   0.0000 0.0000 0.5000  plane waves:    7046
 k-point 80 :   0.0000 0.0000 0.5000  plane waves:    7046
 k-point 81 :   0.0417 0.0000 0.5000  plane waves:    7042
 k-point 82 :   0.0833 0.0000 0.5000  plane waves:    7024
 k-point 83 :   0.1250 0.0000 0.5000  plane waves:    7026
 k-point 84 :   0.1667 0.0000 0.5000  plane waves:    7024
 k-point 85 :   0.2083 0.0000 0.5000  plane waves:    7018
 k-point 86 :   0.2500 0.0000 0.5000  plane waves:    7006
 k-point 87 :   0.2917 0.0000 0.5000  plane waves:    7016
 k-point 88 :   0.3333 0.0000 0.5000  plane waves:    7016
 k-point 89 :   0.3750 0.0000 0.5000  plane waves:    7010
 k-point 90 :   0.4167 0.0000 0.5000  plane waves:    7028
 k-point 91 :   0.4583 0.0000 0.5000  plane waves:    7002
 k-point 92 :   0.5000 0.0000 0.5000  plane waves:    6992
 k-point 93 :   0.5000 0.0000 0.5000  plane waves:    6992
 k-point 94 :   0.5000 0.0417 0.5000  plane waves:    6984
 k-point 95 :   0.5000 0.0833 0.5000  plane waves:    6976
 k-point 96 :   0.5000 0.1250 0.5000  plane waves:    6992
 k-point 97 :   0.5000 0.1667 0.5000  plane waves:    6992
 k-point 98 :   0.5000 0.2083 0.5000  plane waves:    6988
 k-point 99 :   0.5000 0.2500 0.5000  plane waves:    7000
 k-point ** :   0.5000 0.2917 0.5000  plane waves:    7000
 k-point ** :   0.5000 0.3333 0.5000  plane waves:    6992
 k-point ** :   0.5000 0.3750 0.5000  plane waves:    6976
 k-point ** :   0.5000 0.4167 0.5000  plane waves:    6980
 k-point ** :   0.5000 0.4583 0.5000  plane waves:    6972
 k-point ** :   0.5000 0.5000 0.5000  plane waves:    6952
 k-point ** :   0.5000 0.5000 0.5000  plane waves:    6952
 k-point ** :   0.4583 0.5000 0.5000  plane waves:    6972
 k-point ** :   0.4167 0.5000 0.5000  plane waves:    6988
 k-point ** :   0.3750 0.5000 0.5000  plane waves:    7020
 k-point ** :   0.3333 0.5000 0.5000  plane waves:    7032
 k-point ** :   0.2917 0.5000 0.5000  plane waves:    7028
 k-point ** :   0.2500 0.5000 0.5000  plane waves:    7012
 k-point ** :   0.2083 0.5000 0.5000  plane waves:    7016
 k-point ** :   0.1667 0.5000 0.5000  plane waves:    7008
 k-point ** :   0.1250 0.5000 0.5000  plane waves:    7016
 k-point ** :   0.0833 0.5000 0.5000  plane waves:    7012
 k-point ** :   0.0417 0.5000 0.5000  plane waves:    7000
 k-point ** :   0.0000 0.5000 0.5000  plane waves:    7008
 k-point ** :   0.0000 0.5000 0.5000  plane waves:    7008
 k-point ** :   0.0000 0.4583 0.5000  plane waves:    6990
 k-point ** :   0.0000 0.4167 0.5000  plane waves:    7014
 k-point ** :   0.0000 0.3750 0.5000  plane waves:    7024
 k-point ** :   0.0000 0.3333 0.5000  plane waves:    7044
 k-point ** :   0.0000 0.2917 0.5000  plane waves:    7020
 k-point ** :   0.0000 0.2500 0.5000  plane waves:    7026
 k-point ** :   0.0000 0.2083 0.5000  plane waves:    7016
 k-point ** :   0.0000 0.1667 0.5000  plane waves:    7026
 k-point ** :   0.0000 0.1250 0.5000  plane waves:    7060
 k-point ** :   0.0000 0.0833 0.5000  plane waves:    7054
 k-point ** :   0.0000 0.0417 0.5000  plane waves:    7026
 k-point ** :   0.0000 0.0000 0.5000  plane waves:    7046
 k-point ** :   0.5000 0.0000 0.0000  plane waves:    7014
 k-point ** :   0.5000 0.0000 0.0625  plane waves:    7008
 k-point ** :   0.5000 0.0000 0.1250  plane waves:    7010
 k-point ** :   0.5000 0.0000 0.1875  plane waves:    7008
 k-point ** :   0.5000 0.0000 0.2500  plane waves:    7014
 k-point ** :   0.5000 0.0000 0.3125  plane waves:    7010
 k-point ** :   0.5000 0.0000 0.3750  plane waves:    7026
 k-point ** :   0.5000 0.0000 0.4375  plane waves:    7008
 k-point ** :   0.5000 0.0000 0.5000  plane waves:    6992
 k-point ** :   0.0000 0.5000 0.0000  plane waves:    7018
 k-point ** :   0.0000 0.5000 0.0625  plane waves:    7004
 k-point ** :   0.0000 0.5000 0.1250  plane waves:    7016
 k-point ** :   0.0000 0.5000 0.1875  plane waves:    7024
 k-point ** :   0.0000 0.5000 0.2500  plane waves:    6998
 k-point ** :   0.0000 0.5000 0.3125  plane waves:    7016
 k-point ** :   0.0000 0.5000 0.3750  plane waves:    7032
 k-point ** :   0.0000 0.5000 0.4375  plane waves:    7016
 k-point ** :   0.0000 0.5000 0.5000  plane waves:    7008
 k-point ** :   0.5000 0.5000 0.0000  plane waves:    7008
 k-point ** :   0.5000 0.5000 0.0625  plane waves:    6996
 k-point ** :   0.5000 0.5000 0.1250  plane waves:    7000
 k-point ** :   0.5000 0.5000 0.1875  plane waves:    6992
 k-point ** :   0.5000 0.5000 0.2500  plane waves:    6972
 k-point ** :   0.5000 0.5000 0.3125  plane waves:    6988
 k-point ** :   0.5000 0.5000 0.3750  plane waves:    6960
 k-point ** :   0.5000 0.5000 0.4375  plane waves:    6972
 k-point ** :   0.5000 0.5000 0.5000  plane waves:    6952

 maximum and minimum number of plane-waves per node :       926      832

 maximum number of plane-waves:      7060
 maximum index in each direction: 
   IXMAX=   10   IYMAX=   10   IZMAX=   14
   IXMIN=  -11   IYMIN=  -11   IZMIN=  -15


 real space projection operators:
  total allocation   :      15880.31 KBytes
  max/ min on nodes  :       2302.28       1864.56


 parallel 3D FFT for wavefunctions:
    minimum data exchange during FFTs selected (reduces bandwidth)
 parallel 3D FFT for charge:
    minimum data exchange during FFTs selected (reduces bandwidth)


 FFT grid for exact exchange (Hartree Fock) 
  NGX = 32; NGY = 32; NGZ = 48

 
 Radii for the augmentation spheres in the non-local exchange
 for species   1 augmentation radius   1.435 (default was   1.148)
       energy cutoff for augmentation   2080.0
 for species   2 augmentation radius   1.478 (default was   1.182)
       energy cutoff for augmentation   2080.0
 for species   3 augmentation radius   0.886 (default was   0.709)
       energy cutoff for augmentation   2080.0

 real space projection operators:
  total allocation   :       4293.78 KBytes
  max/ min on nodes  :        583.88        468.75

 Maximum index for augmentation-charges in exchange          275
  SETUP_FOCK is finished

 total amount of memory used by VASP MPI-rank0   117942. kBytes
=======================================================================

   base      :      30000. kBytes
   nonlr-proj:       7174. kBytes
   fftplans  :       3399. kBytes
   grid      :       2188. kBytes
   one-center:        147. kBytes
   HF        :        409. kBytes
   wavefun   :      74625. kBytes
 
     INWAV:  cpu time    5.3508: real time    5.4877
 initial charge density was supplied:
 number of electron     128.0000000 magnetization 
 keeping initial charge density in first step


--------------------------------------------------------------------------------------------------------


 Maximum index for non-local projection operator         1449
 Maximum index for augmentation-charges         4417 (set IRDMAX)


--------------------------------------------------------------------------------------------------------


 First call to EWALD:  gamma=   0.278
 Maximum number of real-space cells 3x 3x 2
 Maximum number of reciprocal cells 2x 3x 3

    FEWALD:  cpu time    0.0016: real time    0.0016


--------------------------------------- Iteration      1(   1)  ---------------------------------------


    POTLOK:  cpu time    0.0537: real time    0.0564
    SETDIJ:  cpu time    0.2370: real time    0.2371
    TRIAL :  cpu time 1792.7604: real time 1793.0542
    CORREC:  cpu time    0.0023: real time    0.0023
    --------------------------------------------
      LOOP:  cpu time 1793.0829: real time 1793.3805

 eigenvalue-minimisations  :     0
 total energy-change (2. order) :-0.2218418E+03  (-0.1140562E+01)
 number of electron     128.0000000 magnetization 
 augmentation part      128.0000000 magnetization 

 Free energy of the ion-electron system (eV)
  ---------------------------------------------------
  alpha Z        PSCENC =       604.94042719
  Ewald energy   TEWEN  =     -7596.03970221
  -Hartree energ DENC   =      -874.61239661
  -exchange      EXHF   =       279.58020652
  -V(xc)+E(xc)   XCENC  =       132.55609015
  PAW double counting   =     12290.90847498   -12122.10305476
  entropy T*S    EENTRO =        -0.00632187
  eigenvalues    EBANDS =      -344.72594458
  atomic energy  EATOM  =      7407.65966009
  ---------------------------------------------------
  free energy    TOTEN  =      -221.84176142 eV

  energy without entropy =     -221.83543955  energy(sigma->0) =     -221.83860048
  exchange ACFDT corr.  =        -0.00190908  see jH, gK, PRB 81, 115126


--------------------------------------------------------------------------------------------------------




--------------------------------------- Iteration      1(   2)  ---------------------------------------


    TRIAL :  cpu time 1791.9703: real time 1792.1415
    CORREC:  cpu time    0.0023: real time    0.0023
    --------------------------------------------
      LOOP:  cpu time 1791.9855: real time 1792.1643

 eigenvalue-minimisations  :     0
 total energy-change (2. order) :-0.8082156E+00  (-0.7946743E+00)
 number of electron     128.0000000 magnetization 
 augmentation part      128.0000000 magnetization 

 Free energy of the ion-electron system (eV)
  ---------------------------------------------------
  alpha Z        PSCENC =       604.94042719
  Ewald energy   TEWEN  =     -7596.03970221
  -Hartree energ DENC   =      -874.61239661
  -exchange      EXHF   =       279.87701337
  -V(xc)+E(xc)   XCENC  =       132.55609015
  PAW double counting   =     12290.90847498   -12122.10305476
  entropy T*S    EENTRO =        -0.00660368
  eigenvalues    EBANDS =      -345.83016735
  atomic energy  EATOM  =      7407.65966009
  ---------------------------------------------------
  free energy    TOTEN  =      -222.64997702 eV

  energy without entropy =     -222.64337334  energy(sigma->0) =     -222.64667518
  exchange ACFDT corr.  =        -0.00519940  see jH, gK, PRB 81, 115126


--------------------------------------------------------------------------------------------------------




--------------------------------------- Iteration      1(   3)  ---------------------------------------


    TRIAL :  cpu time 1789.3706: real time 1789.5598
    CORREC:  cpu time    0.0021: real time    0.0023
    --------------------------------------------
      LOOP:  cpu time 1789.3794: real time 1789.5833

 eigenvalue-minimisations  :     0
 total energy-change (2. order) :-0.2241954E+00  (-0.2072127E+01)
 number of electron     128.0000000 magnetization 
 augmentation part      128.0000000 magnetization 

 Free energy of the ion-electron system (eV)
  ---------------------------------------------------
  alpha Z        PSCENC =       604.94042719
  Ewald energy   TEWEN  =     -7596.03970221
  -Hartree energ DENC   =      -874.61239661
  -exchange      EXHF   =       279.89309781
  -V(xc)+E(xc)   XCENC  =       132.55609015
  PAW double counting   =     12290.90847498   -12122.10305476
  entropy T*S    EENTRO =        -0.00447357
  eigenvalues    EBANDS =      -346.07016536
  atomic energy  EATOM  =      7407.65966009
  ---------------------------------------------------
  free energy    TOTEN  =      -222.87417241 eV

  energy without entropy =     -222.86969884  energy(sigma->0) =     -222.87193562
  exchange ACFDT corr.  =        -0.00436476  see jH, gK, PRB 81, 115126


--------------------------------------------------------------------------------------------------------




--------------------------------------- Iteration      1(   4)  ---------------------------------------


    TRIAL :  cpu time 1788.3505: real time 1788.5231
    CORREC:  cpu time    0.0022: real time    0.0022
    --------------------------------------------
      LOOP:  cpu time 1788.3572: real time 1788.5685

 eigenvalue-minimisations  :     0
 total energy-change (2. order) : 0.2841458E+01  (-0.3320857E+02)
 number of electron     128.0000000 magnetization 
 augmentation part      128.0000000 magnetization 

 Free energy of the ion-electron system (eV)
  ---------------------------------------------------
  alpha Z        PSCENC =       604.94042719
  Ewald energy   TEWEN  =     -7596.03970221
  -Hartree energ DENC   =      -874.61239661
  -exchange      EXHF   =       280.27131600
  -V(xc)+E(xc)   XCENC  =       132.55609015
  PAW double counting   =     12290.90847498   -12122.10305476
  entropy T*S    EENTRO =        -0.00208891
  eigenvalues    EBANDS =      -343.60905530
  atomic energy  EATOM  =      7407.65966009
  ---------------------------------------------------
  free energy    TOTEN  =      -220.03271404 eV

  energy without entropy =     -220.03062513  energy(sigma->0) =     -220.03166959
  exchange ACFDT corr.  =        -0.00269701  see jH, gK, PRB 81, 115126


[...]
     77      12.9231      0.00000
     78      12.9250      0.00000
     79      12.9483      0.00000
     80      12.9492      0.00000

 k-point   158 :       0.5000    0.5000    0.5000
  band No.  band energies     occupation 
      1     -26.4991      2.00000
      2     -26.4991      2.00000
      3     -26.4990      2.00000
      4     -26.4990      2.00000
      5     -10.8135      2.00000
      6     -10.8135      2.00000
      7     -10.8135      2.00000
      8     -10.8135      2.00000
      9      -9.7563      2.00000
     10      -9.7563      2.00000
     11      -9.7562      2.00000
     12      -9.7562      2.00000
     13      -8.9966      2.00000
     14      -8.9966      2.00000
     15      -8.9966      2.00000
     16      -8.9966      2.00000
     17      -7.9914      2.00000
     18      -7.9914      2.00000
     19      -7.9914      2.00000
     20      -7.9914      2.00000
     21      -6.8955      2.00000
     22      -6.8955      2.00000
     23      -6.8955      2.00000
     24      -6.8955      2.00000
     25      -6.3829      2.00000
     26      -6.3829      2.00000
     27      -6.3829      2.00000
     28      -6.3829      2.00000
     29       0.5054      2.00000
     30       0.5054      2.00000
     31       0.5054      2.00000
     32       0.5054      2.00000
     33       1.5970      2.00000
     34       1.5970      2.00000
     35       1.5971      2.00000
     36       1.5971      2.00000
     37       2.3300      2.00000
     38       2.3300      2.00000
     39       2.3301      2.00000
     40       2.3301      2.00000
     41       2.9183      2.00000
     42       2.9183      2.00000
     43       2.9183      2.00000
     44       2.9183      2.00000
     45       3.0509      2.00000
     46       3.0509      2.00000
     47       3.0510      2.00000
     48       3.0510      2.00000
     49       4.7019      2.00000
     50       4.7019      2.00000
     51       4.7020      2.00000
     52       4.7020      2.00000
     53       5.4376      2.00000
     54       5.4376      2.00000
     55       5.4376      2.00000
     56       5.4376      2.00000
     57       5.7008      2.00000
     58       5.7008      2.00000
     59       5.7008      2.00000
     60       5.7008      2.00000
     61       6.5200      2.00000
     62       6.5200      2.00000
     63       6.5200      2.00000
     64       6.5201      2.00000
     65       9.8425      0.00000
     66       9.8425      0.00000
     67       9.8425      0.00000
     68       9.8425      0.00000
     69      10.8144      0.00000
     70      10.8144      0.00000
     71      10.8144      0.00000
     72      10.8144      0.00000
     73      11.6016      0.00000
     74      11.6016      0.00000
     75      11.6016      0.00000
     76      11.6016      0.00000
     77      12.9332      0.00000
     78      12.9383      0.00000
     79      12.9393      0.00000
     80      12.9478      0.00000


--------------------------------------------------------------------------------------------------------


 soft charge-density along one line, spin component           1
         0         1         2         3         4         5         6         7         8         9
 total charge-density along one line
 
 pseudopotential strength for first ion, spin component:           1
 51.136 -41.249  -0.003  -0.000   0.002   0.001  -0.000  -0.001
-41.249  26.295   0.002   0.000  -0.001  -0.001  -0.000   0.001
 -0.003   0.002  18.019  -0.000  -0.000 -11.256  -0.000  -0.001
 -0.000   0.000  -0.000  18.022  -0.000  -0.000 -11.251  -0.000
  0.002  -0.001  -0.000  -0.000  18.020  -0.001  -0.000 -11.253
  0.001  -0.001 -11.256  -0.000  -0.001  17.158   0.000   0.000
 -0.000  -0.000  -0.000 -11.251  -0.000   0.000  17.154   0.000
 -0.001   0.001  -0.001  -0.000 -11.253   0.000   0.000  17.156
 -0.000   0.001   0.001  -0.000  -0.001  -0.000  -0.000   0.000
 -0.000   0.000  -0.000  -0.001  -0.000  -0.000   0.000  -0.000
  0.001  -0.002   0.001  -0.000  -0.000   0.000  -0.000   0.000
 -0.000   0.000  -0.000   0.001  -0.000  -0.000  -0.000  -0.000
  0.000  -0.001   0.001   0.000   0.000   0.000   0.000  -0.000
 -0.000   0.001   0.001  -0.000  -0.001  -0.000  -0.000   0.000
 -0.000   0.000  -0.000  -0.001  -0.000  -0.000   0.001  -0.000
  0.001  -0.003   0.001  -0.000  -0.000   0.000  -0.000   0.000
 -0.000   0.000  -0.000   0.001  -0.000  -0.000  -0.000  -0.000
  0.000  -0.001   0.002   0.000   0.001   0.000   0.000  -0.001
 -0.002   0.000  -0.004  -0.000   0.001   0.002   0.000  -0.001
  0.000  -0.000   0.000   0.003   0.000  -0.000  -0.001  -0.000
 -0.002   0.000  -0.004  -0.000   0.001   0.002   0.000  -0.001
 -0.000   0.000  -0.000  -0.007   0.000   0.000   0.005  -0.000
 -0.001   0.000   0.001   0.000  -0.001  -0.001  -0.000   0.001
 -0.000   0.000  -0.000  -0.001  -0.000   0.000   0.001   0.000
  0.001  -0.000  -0.000  -0.000  -0.001  -0.000   0.000   0.001
 -0.001   0.000  -0.004  -0.000   0.001   0.002   0.000  -0.001
  0.000  -0.000   0.000   0.002   0.000  -0.000  -0.001  -0.000
 -0.002   0.000  -0.003  -0.000   0.001   0.002   0.000  -0.001
 -0.000   0.000  -0.000  -0.007   0.000   0.000   0.005  -0.000
 -0.001   0.000   0.001   0.000  -0.001  -0.001  -0.000   0.001
 -0.000   0.000  -0.000  -0.001  -0.000   0.000   0.001   0.000
  0.001  -0.000  -0.000  -0.000  -0.001  -0.000   0.000   0.001
 total augmentation occupancy for first ion, spin component:           1
  2.000   0.000   0.000   0.000   0.000   0.000   0.000   0.000   0.000   0.000   0.000   0.000   0.000   0.000   0.000   0.000
  0.000   2.000   0.000   0.000   0.000   0.000   0.000   0.000   0.000   0.000   0.000   0.000   0.000   0.000   0.000   0.000
  0.000   0.000   2.000   0.000   0.000   0.000   0.000   0.000   0.000   0.000   0.000   0.000   0.000   0.000   0.000   0.000
  0.000   0.000   0.000   2.000   0.000   0.000   0.000   0.000   0.000   0.000   0.000   0.000   0.000   0.000   0.000   0.000
  0.000   0.000   0.000   0.000   2.000   0.000   0.000   0.000   0.000   0.000   0.000   0.000   0.000   0.000   0.000   0.000
  0.000   0.000   0.000   0.000   0.000   0.000   0.000   0.000   0.000   0.000   0.000   0.000   0.000   0.000   0.000   0.000
  0.000   0.000   0.000   0.000   0.000   0.000   0.000   0.000   0.000   0.000   0.000   0.000   0.000   0.000   0.000   0.000
  0.000   0.000   0.000   0.000   0.000   0.000   0.000   0.000   0.000   0.000   0.000   0.000   0.000   0.000   0.000   0.000
  0.000   0.000   0.000   0.000   0.000   0.000   0.000   0.000   0.200   0.000   0.000   0.000   0.000   0.000   0.000   0.000
  0.000   0.000   0.000   0.000   0.000   0.000   0.000   0.000   0.000   0.200   0.000   0.000   0.000   0.000   0.000   0.000
  0.000   0.000   0.000   0.000   0.000   0.000   0.000   0.000   0.000   0.000   0.200   0.000   0.000   0.000   0.000   0.000
  0.000   0.000   0.000   0.000   0.000   0.000   0.000   0.000   0.000   0.000   0.000   0.200   0.000   0.000   0.000   0.000
  0.000   0.000   0.000   0.000   0.000   0.000   0.000   0.000   0.000   0.000   0.000   0.000   0.200   0.000   0.000   0.000
  0.000   0.000   0.000   0.000   0.000   0.000   0.000   0.000   0.000   0.000   0.000   0.000   0.000   0.000   0.000   0.000
  0.000   0.000   0.000   0.000   0.000   0.000   0.000   0.000   0.000   0.000   0.000   0.000   0.000   0.000   0.000   0.000
  0.000   0.000   0.000   0.000   0.000   0.000   0.000   0.000   0.000   0.000   0.000   0.000   0.000   0.000   0.000   0.000
  0.000   0.000   0.000   0.000   0.000   0.000   0.000   0.000   0.000   0.000   0.000   0.000   0.000   0.000   0.000   0.000
  0.000   0.000   0.000   0.000   0.000   0.000   0.000   0.000   0.000   0.000   0.000   0.000   0.000   0.000   0.000   0.000
  0.000   0.000   0.000   0.000   0.000   0.000   0.000   0.000   0.000   0.000   0.000   0.000   0.000   0.000   0.000   0.000
  0.000   0.000   0.000   0.000   0.000   0.000   0.000   0.000   0.000   0.000   0.000   0.000   0.000   0.000   0.000   0.000
  0.000   0.000   0.000   0.000   0.000   0.000   0.000   0.000   0.000   0.000   0.000   0.000   0.000   0.000   0.000   0.000
  0.000   0.000   0.000   0.000   0.000   0.000   0.000   0.000   0.000   0.000   0.000   0.000   0.000   0.000   0.000   0.000
  0.000   0.000   0.000   0.000   0.000   0.000   0.000   0.000   0.000   0.000   0.000   0.000   0.000   0.000   0.000   0.000
  0.000   0.000   0.000   0.000   0.000   0.000   0.000   0.000   0.000   0.000   0.000   0.000   0.000   0.000   0.000   0.000
  0.000   0.000   0.000   0.000   0.000   0.000   0.000   0.000   0.000   0.000   0.000   0.000   0.000   0.000   0.000   0.000
  0.000   0.000   0.000   0.000   0.000   0.000   0.000   0.000   0.000   0.000   0.000   0.000   0.000   0.000   0.000   0.000
  0.000   0.000   0.000   0.000   0.000   0.000   0.000   0.000   0.000   0.000   0.000   0.000   0.000   0.000   0.000   0.000
  0.000   0.000   0.000   0.000   0.000   0.000   0.000   0.000   0.000   0.000   0.000   0.000   0.000   0.000   0.000   0.000
  0.000   0.000   0.000   0.000   0.000   0.000   0.000   0.000   0.000   0.000   0.000   0.000   0.000   0.000   0.000   0.000
  0.000   0.000   0.000   0.000   0.000   0.000   0.000   0.000   0.000   0.000   0.000   0.000   0.000   0.000   0.000   0.000
  0.000   0.000   0.000   0.000   0.000   0.000   0.000   0.000   0.000   0.000   0.000   0.000   0.000   0.000   0.000   0.000
  0.000   0.000   0.000   0.000   0.000   0.000   0.000   0.000   0.000   0.000   0.000   0.000   0.000   0.000   0.000   0.000


------------------------ aborting loop because EDIFF is reached ----------------------------------------


 


 total charge     
 
# of ion       s       p       d       f       tot
--------------------------------------------------
    1        2.013   5.694   0.567   0.167   8.442
    2        2.013   5.694   0.566   0.167   8.440
    3        2.013   5.694   0.567   0.167   8.442
    4        2.013   5.694   0.566   0.167   8.440
    5        0.810   1.057   3.996   0.000   5.863
    6        0.810   1.056   3.994   0.000   5.860
    7        0.810   1.056   3.995   0.000   5.861
    8        0.810   1.056   3.994   0.000   5.859
    9        1.266   2.483   0.000   0.000   3.748
   10        1.260   2.518   0.000   0.000   3.777
   11        1.266   2.483   0.000   0.000   3.748
   12        1.260   2.518   0.000   0.000   3.778
   13        1.266   2.483   0.000   0.000   3.748
   14        1.260   2.518   0.000   0.000   3.777
   15        1.266   2.483   0.000   0.000   3.748
   16        1.260   2.518   0.000   0.000   3.778
   17        1.264   2.502   0.000   0.000   3.766
   18        1.263   2.501   0.000   0.000   3.764
   19        1.264   2.502   0.000   0.000   3.766
   20        1.263   2.501   0.000   0.000   3.764
--------------------------------------------------
tot         26.448  57.009  18.245   0.668 102.370

 
    CHARGE:  cpu time    0.1472: real time    0.7545
    FORLOC:  cpu time    0.0023: real time    0.0024
    FORHF :  cpu time 3696.6902: real time 3697.0554
    FORNL :  cpu time    2.0830: real time    2.0863
    FORCOR:  cpu time    0.2882: real time    0.2886
    FORHAR:  cpu time    0.0037: real time    0.0037
    OFIELD:  cpu time    0.0005: real time    0.0005

 VOLUME and BASIS-vectors are now :
 -----------------------------------------------------------------------------
  energy-cutoff  :      520.00
  volume of cell :      260.27
      direct lattice vectors                 reciprocal lattice vectors
     5.672077681  0.000000000  0.000000000     0.176302240  0.000000000  0.000000000
     0.000000000  5.723819950  0.000000000     0.000000000  0.174708500  0.000000000
     0.000000000  0.000000000  8.016561598     0.000000000  0.000000000  0.124741760

  length of vectors
     5.672077681  5.723819950  8.016561598     0.176302240  0.174708500  0.124741760


 FORCES acting on ions
    electron-ion (+dipol)            ewald-force                    non-local-force                 convergence-correction
 -----------------------------------------------------------------------------------------------
   -.654E+01 0.757E+01 -.413E-03   0.644E+01 -.719E+01 0.463E-11   0.764E-01 -.154E+00 0.000E+00   -.177E-01 -.133E+00 0.186E-03
   -.654E+01 -.757E+01 -.913E-04   0.644E+01 0.719E+01 0.466E-11   0.764E-01 0.154E+00 0.000E+00   -.177E-01 0.133E+00 0.944E-04
   0.654E+01 -.757E+01 0.405E-03   -.644E+01 0.719E+01 0.678E-11   -.764E-01 0.154E+00 0.000E+00   0.177E-01 0.133E+00 -.182E-03
   0.654E+01 0.757E+01 0.108E-03   -.644E+01 -.719E+01 0.684E-11   -.764E-01 -.154E+00 0.000E+00   0.177E-01 -.133E+00 -.103E-03
   -.121E-05 -.151E-05 0.181E-06   -.265E-12 -.267E-11 -.114E-10   0.000E+00 0.000E+00 0.000E+00   0.136E-07 0.117E-05 -.281E-06
   0.282E-05 -.141E-06 0.160E-07   0.999E-13 -.414E-12 0.411E-11   0.000E+00 0.000E+00 0.000E+00   -.116E-05 0.262E-06 -.367E-06
   0.423E-05 0.253E-05 -.119E-05   -.103E-12 0.399E-12 0.406E-11   0.000E+00 0.000E+00 0.000E+00   -.367E-06 -.139E-05 0.474E-06
   -.398E-05 -.192E-05 -.890E-06   -.753E-13 0.266E-11 -.114E-10   0.000E+00 0.000E+00 0.000E+00   0.115E-05 -.650E-06 0.620E-06
   -.126E+01 -.141E+01 -.450E+01   0.931E+00 0.179E+01 0.323E+01   0.791E-01 -.229E+00 0.450E+00   0.168E+00 -.151E+00 0.658E+00
   -.126E+01 0.141E+01 0.450E+01   0.931E+00 -.179E+01 -.323E+01   0.791E-01 0.229E+00 -.450E+00   0.169E+00 0.151E+00 -.658E+00
   0.126E+01 0.141E+01 -.450E+01   -.931E+00 -.179E+01 0.323E+01   -.791E-01 0.229E+00 0.450E+00   -.168E+00 0.151E+00 0.658E+00
   0.126E+01 -.141E+01 0.450E+01   -.931E+00 0.179E+01 -.323E+01   -.791E-01 -.229E+00 -.450E+00   -.169E+00 -.151E+00 -.658E+00
   0.126E+01 0.141E+01 0.450E+01   -.931E+00 -.179E+01 -.323E+01   -.791E-01 0.229E+00 -.450E+00   -.168E+00 0.151E+00 -.658E+00
   0.126E+01 -.141E+01 -.450E+01   -.931E+00 0.179E+01 0.323E+01   -.791E-01 -.229E+00 0.450E+00   -.169E+00 -.151E+00 0.658E+00
   -.126E+01 -.141E+01 0.450E+01   0.931E+00 0.179E+01 -.323E+01   0.791E-01 -.229E+00 -.450E+00   0.168E+00 -.151E+00 -.658E+00
   -.126E+01 0.141E+01 -.450E+01   0.931E+00 -.179E+01 0.323E+01   0.791E-01 0.229E+00 0.450E+00   0.169E+00 0.151E+00 0.658E+00
   0.432E+01 -.323E+00 -.841E-04   -.447E+01 0.203E+01 0.121E-11   0.234E+00 -.697E+00 0.651E-18   -.602E-01 -.778E+00 0.591E-04
   0.432E+01 0.322E+00 0.519E-04   -.447E+01 -.203E+01 0.121E-11   0.234E+00 0.697E+00 0.434E-18   -.602E-01 0.778E+00 -.162E-04
   -.432E+01 0.323E+00 0.836E-04   0.447E+01 -.203E+01 0.390E-11   -.234E+00 0.697E+00 -.651E-18   0.602E-01 0.778E+00 -.596E-04
   -.432E+01 -.322E+00 -.503E-04   0.447E+01 0.203E+01 0.390E-11   -.234E+00 -.697E+00 0.434E-18   0.602E-01 -.778E+00 0.153E-04
 -----------------------------------------------------------------------------------------------
   -.142E-04 -.564E-05 0.156E-04   0.799E-14 -.648E-13 0.129E-13   -.555E-16 0.000E+00 0.564E-16   0.297E-05 0.414E-08 -.707E-05
 
 
 POSITION                                       TOTAL-FORCE (eV/Angst)
 -----------------------------------------------------------------------------------
      2.78383      0.01385      2.00414        -0.002176      0.025947     -0.000000
      5.61987      2.84806      2.00414        -0.002176     -0.025947     -0.000000
      2.88824      5.70997      6.01242         0.002176     -0.025947     -0.000000
      0.05221      2.87576      6.01242         0.002176      0.025947     -0.000000
      2.83604      2.86191      0.00000         0.000000      0.000000     -0.000000
      0.00000      0.00000      4.00828         0.000000      0.000000     -0.000000
      2.83604      2.86191      4.00828         0.000000      0.000000     -0.000000
      0.00000      0.00000      0.00000         0.000000      0.000000     -0.000000
      1.35119      1.48765      3.77617        -0.073501     -0.019784     -0.117373
      4.18723      1.37426      0.23211        -0.073501      0.019784      0.117373
      4.32088      4.23617      7.78445         0.073501      0.019784     -0.117373
      1.48484      4.34956      4.24039         0.073501     -0.019784      0.117373
      4.32088      4.23617      4.24039         0.073501      0.019784      0.117373
      1.48484      4.34956      7.78445         0.073501     -0.019784     -0.117373
      1.35119      1.48765      0.23211        -0.073501     -0.019784      0.117373
      4.18723      1.37426      3.77617        -0.073501      0.019784     -0.117373
      2.84761      3.17925      2.00414         0.043944      0.170115     -0.000000
      0.01157      5.40648      2.00414         0.043944     -0.170115     -0.000000
      2.82447      2.54457      6.01242        -0.043944     -0.170115     -0.000000
      5.66051      0.31734      6.01242        -0.043944      0.170115     -0.000000
 -----------------------------------------------------------------------------------
    total drift:                               -0.000011     -0.000006      0.000009


--------------------------------------------------------------------------------------------------------



  FREE ENERGIE OF THE ION-ELECTRON SYSTEM (eV)
  ---------------------------------------------------
  free  energy   TOTEN  =      -223.39141421 eV

  energy  without entropy=     -223.39041915  energy(sigma->0) =     -223.39091668
 


--------------------------------------------------------------------------------------------------------


    POTLOK:  cpu time    0.2816: real time    0.3446


--------------------------------------------------------------------------------------------------------


     LOOP+:  cpu time**********: real time**********
    4ORBIT:  cpu time    0.0000: real time    0.0000
 


 total charge     
 
# of ion       s       p       d       f       tot
--------------------------------------------------
    1        2.013   5.694   0.567   0.167   8.442
    2        2.013   5.694   0.566   0.167   8.440
    3        2.013   5.694   0.567   0.167   8.442
    4        2.013   5.694   0.566   0.167   8.440
    5        0.810   1.057   3.996   0.000   5.863
    6        0.810   1.056   3.994   0.000   5.860
    7        0.810   1.056   3.995   0.000   5.861
    8        0.810   1.056   3.994   0.000   5.859
    9        1.266   2.483   0.000   0.000   3.748
   10        1.260   2.518   0.000   0.000   3.777
   11        1.266   2.483   0.000   0.000   3.748
   12        1.260   2.518   0.000   0.000   3.778
   13        1.266   2.483   0.000   0.000   3.748
   14        1.260   2.518   0.000   0.000   3.777
   15        1.266   2.483   0.000   0.000   3.748
   16        1.260   2.518   0.000   0.000   3.778
   17        1.264   2.502   0.000   0.000   3.766
   18        1.263   2.501   0.000   0.000   3.764
   19        1.264   2.502   0.000   0.000   3.766
   20        1.263   2.501   0.000   0.000   3.764
--------------------------------------------------
tot         26.448  57.009  18.245   0.668 102.370

 

 total amount of memory used by VASP MPI-rank0   120648. kBytes
=======================================================================

   base      :      30000. kBytes
   nonlr-proj:       9880. kBytes
   fftplans  :       3399. kBytes
   grid      :       2188. kBytes
   one-center:        147. kBytes
   HF        :        409. kBytes
   wavefun   :      74625. kBytes
 
  
  
 General timing and accounting informations for this job:
 ========================================================
  
                  Total CPU time used (sec):   112513.312
                            User time (sec):   112501.906
                          System time (sec):       11.407
                         Elapsed time (sec):   112528.456
  
                   Maximum memory used (kb):      398864.
                   Average memory used (kb):           0.
  
                          Minor page faults:      7271898
                          Major page faults:         4749
                 Voluntary context switches:         8770
