 vasp.5.4.1 24Jun15 (build Nov 23 2015 09:58:10) complex                        
  
 executed on             LinuxIFC date 2020.05.16  03:18:55
 running on   96 total cores
 distrk:  each k-point on   96 cores,    1 groups
 distr:  one band on NCORES_PER_BAND=  12 cores,    8 groups


--------------------------------------------------------------------------------------------------------


 INCAR:
 POTCAR:    PAW_PBE Mo_sv 02Feb2006               
 POTCAR:    PAW_PBE H 15Jun2001                   
 POTCAR:    PAW_PBE Mo_sv 02Feb2006               
   VRHFIN =Mo: 4p5s4d                                                           
   LEXCH  = PE                                                                  
   EATOM  =  1862.2866 eV,  136.8742 Ry                                         
                                                                                
   TITEL  = PAW_PBE Mo_sv 02Feb2006                                             
   LULTRA =        F    use ultrasoft PP ?                                      
   IUNSCR =        1    unscreen: 0-lin 1-nonlin 2-no                           
   RPACOR =    2.200    partial core radius                                     
   POMASS =   95.940; ZVAL   =   14.000    mass and valenz                      
   RCORE  =    2.500    outmost cutoff radius                                   
   RWIGS  =    2.750; RWIGS  =    1.455    wigner-seitz radius (au A)           
   ENMAX  =  242.676; ENMIN  =  182.007 eV                                      
   ICORE  =        3    local potential                                         
   LCOR   =        T    correct aug charges                                     
   LPAW   =        T    paw PP                                                  
   EAUG   =  446.014                                                            
   DEXC   =    0.000                                                            
   RMAX   =    2.563    core radius for proj-oper                               
   RAUG   =    1.300    factor for augmentation sphere                          
   RDEP   =    2.641    radius for radial grids                                 
   RDEPT  =    2.031    core radius for aug-charge                              
                                                                                
   Atomic configuration                                                         
   11 entries                                                                   
     n  l   j            E        occ.                                          
     1  0  0.50    -19819.0341   2.0000                                         
     2  0  0.50     -2799.0127   2.0000                                         
     2  1  1.50     -2502.0276   6.0000                                         
     3  0  0.50      -476.4449   2.0000                                         
     3  1  1.50      -379.1496   6.0000                                         
     3  2  2.50      -220.9367  10.0000                                         
     4  0  0.50       -64.3378   2.0000                                         
     5  0  0.50        -4.0862   1.0000                                         
     4  1  1.50       -38.4773   6.0000                                         
     4  2  2.50        -3.7535   5.0000                                         
     4  3  2.50        -1.3606   0.0000                                         
   Description                                                                  
     l       E           TYP  RCUT    TYP  RCUT                                 
     0    -64.3377829     23  2.100                                             
     0     -4.0861640     23  2.400                                             
     1    -38.4772993     23  2.100                                             
     1     13.6058260     23  2.100                                             
     2     -3.7534941     23  2.400                                             
     2     -5.1140767     23  2.400                                             
     3     -4.0817478     23  2.500                                             
  local pseudopotential read in
  partial core-charges read in
  partial kinetic energy density read in
  atomic valenz-charges read in
  non local Contribution for L=           0  read in
    real space projection operators read in
  non local Contribution for L=           0  read in
    real space projection operators read in
  non local Contribution for L=           1  read in
    real space projection operators read in
  non local Contribution for L=           1  read in
    real space projection operators read in
  non local Contribution for L=           2  read in
    real space projection operators read in
  non local Contribution for L=           2  read in
    real space projection operators read in
    PAW grid and wavefunctions read in
 
   number of l-projection  operators is LMAX  =           6
   number of lm-projection operators is LMMAX =          18
 
 POTCAR:    PAW_PBE H 15Jun2001                   
   VRHFIN =H: ultrasoft test                                                    
   LEXCH  = PE                                                                  
   EATOM  =    12.4884 eV,    0.9179 Ry                                         
                                                                                
   TITEL  = PAW_PBE H 15Jun2001                                                 
   LULTRA =        F    use ultrasoft PP ?                                      
   IUNSCR =        0    unscreen: 0-lin 1-nonlin 2-no                           
   RPACOR =    0.000    partial core radius                                     
   POMASS =    1.000; ZVAL   =    1.000    mass and valenz                      
   RCORE  =    1.100    outmost cutoff radius                                   
   RWIGS  =    0.700; RWIGS  =    0.370    wigner-seitz radius (au A)           
   ENMAX  =  250.000; ENMIN  =  200.000 eV                                      
   RCLOC  =    0.701    cutoff for local pot                                    
   LCOR   =        T    correct aug charges                                     
   LPAW   =        T    paw PP                                                  
   EAUG   =  400.000                                                            
   RMAX   =    1.123    core radius for proj-oper                               
   RAUG   =    1.200    factor for augmentation sphere                          
   RDEP   =    1.112    radius for radial grids                                 
   RDEPT  =    0.926    core radius for aug-charge                              
                                                                                
   Atomic configuration                                                         
    2 entries                                                                   
     n  l   j            E        occ.                                          
     1  0  0.50        -6.4927   1.0000                                         
     2  1  0.50        -3.4015   0.0000                                         
   Description                                                                  
     l       E           TYP  RCUT    TYP  RCUT                                 
     0     -6.4927494     23  1.100                                             
     0      6.8029130     23  1.100                                             
     1     -4.0817478     23  1.100                                             
  local pseudopotential read in
  atomic valenz-charges read in
  non local Contribution for L=           0  read in
    real space projection operators read in
  non local Contribution for L=           0  read in
    real space projection operators read in
  non local Contribution for L=           1  read in
    real space projection operators read in
    PAW grid and wavefunctions read in
 
   number of l-projection  operators is LMAX  =           3
   number of lm-projection operators is LMMAX =           5
 
  PAW_PBE Mo_sv 02Feb2006               :
 energy of atom  1       EATOM=-1862.2866
 kinetic energy error for atom=    0.0070 (will be added to EATOM!!)
  PAW_PBE H 15Jun2001                   :
 energy of atom  2       EATOM=  -12.4884
 kinetic energy error for atom=    0.0014 (will be added to EATOM!!)
 
 
 POSCAR: Mo2 H4                                  
  positions in direct lattice
  velocities in cartesian coordinates
 exchange correlation table for  LEXCH =        8
   RHO(1)=    0.500       N(1)  =     2000
   RHO(2)=  100.500       N(2)  =     4000
 


--------------------------------------------------------------------------------------------------------


 ion  position               nearest neighbor table
   1  0.667  0.333  0.437-   5 1.79   6 1.86   6 1.86   6 1.86   3 1.88   3 1.88   3 1.88   2 2.95
                             2 2.95   2 2.95   2 2.95   2 2.95   2 2.95
   2  0.333  0.667  0.937-   6 1.79   5 1.86   5 1.86   5 1.86   4 1.88   4 1.88   4 1.88   1 2.95
                             1 2.95   1 2.95   1 2.95   1 2.95   1 2.95
   3  0.000  0.000  0.570-   1 1.88   1 1.88   1 1.88
   4  0.000  0.000  0.070-   2 1.88   2 1.88   2 1.88
   5  0.667  0.333  0.818-   1 1.79   2 1.86   2 1.86   2 1.86
   6  0.333  0.667  0.318-   2 1.79   1 1.86   1 1.86   1 1.86
 
  LATTYP: Found a hexagonal cell.
 ALAT       =     3.0700000000
 C/A-ratio  =     1.5342019544
  
  Lattice vectors:
  
 A1 = (   1.5350000000,  -2.6586980000,   0.0000000000)
 A2 = (   1.5350000000,   2.6586980000,   0.0000000000)
 A3 = (   0.0000000000,   0.0000000000,   4.7100000000)


Analysis of symmetry for initial positions (statically):
=====================================================================
 Subroutine PRICEL returns:
 Original cell was already a primitive cell.
 

 Routine SETGRP: Setting up the symmetry group for a 
 hexagonal supercell.


 Subroutine GETGRP returns: Found 12 space group operations
 (whereof  6 operations were pure point group operations)
 out of a pool of 24 trial point group operations.


The static configuration has the point symmetry C_3v.
 The point group associated with its full space group is C_6v.


Analysis of symmetry for dynamics (positions and initial velocities):
=====================================================================
 Subroutine PRICEL returns:
 Original cell was already a primitive cell.
 

 Routine SETGRP: Setting up the symmetry group for a 
 hexagonal supercell.


 Subroutine GETGRP returns: Found 12 space group operations
 (whereof  6 operations were pure point group operations)
 out of a pool of 24 trial point group operations.


The dynamic configuration has the point symmetry C_3v.
 The point group associated with its full space group is C_6v.


Analysis of magnetic symmetry:
=====================================================================
 Subroutine PRICEL returns:
 Original cell was already a primitive cell.
 

 Subroutine MAGSYM returns: Found 12 space group operations
 (whereof  6 operations were pure point group operations)
 out of a pool of 12 trial space group operations
 (whereof  6 operations were pure point group operations)
 and found also     1 'primitive' translations


The magnetic configuration has the point symmetry C_3v.
 The point group associated with its full space group is C_6v.
 
 
 KPOINTS: K-Mesh                                  

Automatic generation of k-mesh.
Space group operators:
 irot       det(A)        alpha          n_x          n_y          n_z        tau_x        tau_y        tau_z
    1     1.000000     0.000000     1.000000     0.000000     0.000000     0.000000     0.000000     0.000000
    2     1.000000   120.000000     0.000000     0.000000    -1.000000     0.000000     0.000000     0.000000
    3     1.000000   120.000000     0.000000     0.000000     1.000000     0.000000     0.000000     0.000000
    4    -1.000000   180.000000     0.500000    -0.866025     0.000000     0.000000     0.000000     0.000000
    5    -1.000000   180.000000    -0.500000    -0.866025     0.000000     0.000000     0.000000     0.000000
    6    -1.000000   180.000000     1.000000     0.000000     0.000000     0.000000     0.000000     0.000000
    7     1.000000    60.000000     0.000000     0.000000    -1.000000     0.000001     0.000000     0.500000
    8     1.000000   180.000000     0.000000     0.000000     1.000000     0.000000     0.000000     0.500000
    9     1.000000    60.000000     0.000000     0.000000     1.000000     0.000000     0.000000     0.500000
   10    -1.000000   180.000000     0.000000     1.000000     0.000000     0.000000     0.000000     0.500000
   11    -1.000000   180.000000     0.866025     0.500000     0.000000     0.000001     0.000000     0.500000
   12    -1.000000   180.000000     0.866025    -0.500000     0.000000     0.000000     0.000000     0.500000
 
 Subroutine IBZKPT returns following result:
 ===========================================
 
 Found    240 irreducible k-points:
 
 Following reciprocal coordinates:
            Coordinates               Weight
  0.000000  0.000000  0.000000      1.000000
  0.052632  0.000000  0.000000      6.000000
  0.105263  0.000000  0.000000      6.000000
  0.157895  0.000000  0.000000      6.000000
  0.210526  0.000000  0.000000      6.000000
  0.263158  0.000000  0.000000      6.000000
  0.315789  0.000000  0.000000      6.000000
  0.368421  0.000000  0.000000      6.000000
  0.421053  0.000000  0.000000      6.000000
  0.473684  0.000000  0.000000      6.000000
  0.052632  0.052632  0.000000      6.000000
  0.105263  0.052632  0.000000     12.000000
  0.157895  0.052632  0.000000     12.000000
  0.210526  0.052632  0.000000     12.000000
  0.263158  0.052632  0.000000     12.000000
  0.315789  0.052632  0.000000     12.000000
  0.368421  0.052632  0.000000     12.000000
  0.421053  0.052632  0.000000     12.000000
  0.473684  0.052632  0.000000      6.000000
  0.105263  0.105263  0.000000      6.000000
  0.157895  0.105263  0.000000     12.000000
  0.210526  0.105263  0.000000     12.000000
  0.263158  0.105263  0.000000     12.000000
  0.315789  0.105263  0.000000     12.000000
  0.368421  0.105263  0.000000     12.000000
  0.421053  0.105263  0.000000     12.000000
  0.157895  0.157895  0.000000      6.000000
  0.210526  0.157895  0.000000     12.000000
  0.263158  0.157895  0.000000     12.000000
  0.315789  0.157895  0.000000     12.000000
  0.368421  0.157895  0.000000     12.000000
  0.421053  0.157895  0.000000      6.000000
  0.210526  0.210526  0.000000      6.000000
  0.263158  0.210526  0.000000     12.000000
  0.315789  0.210526  0.000000     12.000000
  0.368421  0.210526  0.000000     12.000000
  0.263158  0.263158  0.000000      6.000000
  0.315789  0.263158  0.000000     12.000000
  0.368421  0.263158  0.000000      6.000000
  0.315789  0.315789  0.000000      6.000000
  0.000000  0.000000  0.090909      2.000000
  0.052632  0.000000  0.090909     12.000000
  0.105263  0.000000  0.090909     12.000000
  0.157895  0.000000  0.090909     12.000000
  0.210526  0.000000  0.090909     12.000000
  0.263158  0.000000  0.090909     12.000000
  0.315789  0.000000  0.090909     12.000000
  0.368421  0.000000  0.090909     12.000000
  0.421053  0.000000  0.090909     12.000000
  0.473684  0.000000  0.090909     12.000000
  0.052632  0.052632  0.090909     12.000000
  0.105263  0.052632  0.090909     24.000000
  0.157895  0.052632  0.090909     24.000000
  0.210526  0.052632  0.090909     24.000000
  0.263158  0.052632  0.090909     24.000000
  0.315789  0.052632  0.090909     24.000000
  0.368421  0.052632  0.090909     24.000000
  0.421053  0.052632  0.090909     24.000000
  0.473684  0.052632  0.090909     12.000000
  0.105263  0.105263  0.090909     12.000000
  0.157895  0.105263  0.090909     24.000000
  0.210526  0.105263  0.090909     24.000000
  0.263158  0.105263  0.090909     24.000000
  0.315789  0.105263  0.090909     24.000000
  0.368421  0.105263  0.090909     24.000000
  0.421053  0.105263  0.090909     24.000000
  0.157895  0.157895  0.090909     12.000000
  0.210526  0.157895  0.090909     24.000000
  0.263158  0.157895  0.090909     24.000000
  0.315789  0.157895  0.090909     24.000000
  0.368421  0.157895  0.090909     24.000000
  0.421053  0.157895  0.090909     12.000000
  0.210526  0.210526  0.090909     12.000000
  0.263158  0.210526  0.090909     24.000000
  0.315789  0.210526  0.090909     24.000000
  0.368421  0.210526  0.090909     24.000000
  0.263158  0.263158  0.090909     12.000000
  0.315789  0.263158  0.090909     24.000000
  0.368421  0.263158  0.090909     12.000000
  0.315789  0.315789  0.090909     12.000000
  0.000000  0.000000  0.181818      2.000000
  0.052632  0.000000  0.181818     12.000000
  0.105263  0.000000  0.181818     12.000000
  0.157895  0.000000  0.181818     12.000000
  0.210526  0.000000  0.181818     12.000000
  0.263158  0.000000  0.181818     12.000000
  0.315789  0.000000  0.181818     12.000000
  0.368421  0.000000  0.181818     12.000000
  0.421053  0.000000  0.181818     12.000000
  0.473684  0.000000  0.181818     12.000000
  0.052632  0.052632  0.181818     12.000000
  0.105263  0.052632  0.181818     24.000000
  0.157895  0.052632  0.181818     24.000000
  0.210526  0.052632  0.181818     24.000000
  0.263158  0.052632  0.181818     24.000000
  0.315789  0.052632  0.181818     24.000000
  0.368421  0.052632  0.181818     24.000000
  0.421053  0.052632  0.181818     24.000000
  0.473684  0.052632  0.181818     12.000000
  0.105263  0.105263  0.181818     12.000000
  0.157895  0.105263  0.181818     24.000000
  0.210526  0.105263  0.181818     24.000000
  0.263158  0.105263  0.181818     24.000000
  0.315789  0.105263  0.181818     24.000000
  0.368421  0.105263  0.181818     24.000000
  0.421053  0.105263  0.181818     24.000000
  0.157895  0.157895  0.181818     12.000000
  0.210526  0.157895  0.181818     24.000000
  0.263158  0.157895  0.181818     24.000000
  0.315789  0.157895  0.181818     24.000000
  0.368421  0.157895  0.181818     24.000000
  0.421053  0.157895  0.181818     12.000000
  0.210526  0.210526  0.181818     12.000000
  0.263158  0.210526  0.181818     24.000000
  0.315789  0.210526  0.181818     24.000000
  0.368421  0.210526  0.181818     24.000000
  0.263158  0.263158  0.181818     12.000000
  0.315789  0.263158  0.181818     24.000000
  0.368421  0.263158  0.181818     12.000000
  0.315789  0.315789  0.181818     12.000000
  0.000000  0.000000  0.272727      2.000000
  0.052632  0.000000  0.272727     12.000000
  0.105263  0.000000  0.272727     12.000000
  0.157895  0.000000  0.272727     12.000000
  0.210526  0.000000  0.272727     12.000000
  0.263158  0.000000  0.272727     12.000000
  0.315789  0.000000  0.272727     12.000000
  0.368421  0.000000  0.272727     12.000000
  0.421053  0.000000  0.272727     12.000000
  0.473684  0.000000  0.272727     12.000000
  0.052632  0.052632  0.272727     12.000000
  0.105263  0.052632  0.272727     24.000000
  0.157895  0.052632  0.272727     24.000000
  0.210526  0.052632  0.272727     24.000000
  0.263158  0.052632  0.272727     24.000000
  0.315789  0.052632  0.272727     24.000000
  0.368421  0.052632  0.272727     24.000000
  0.421053  0.052632  0.272727     24.000000
  0.473684  0.052632  0.272727     12.000000
  0.105263  0.105263  0.272727     12.000000
  0.157895  0.105263  0.272727     24.000000
  0.210526  0.105263  0.272727     24.000000
  0.263158  0.105263  0.272727     24.000000
  0.315789  0.105263  0.272727     24.000000
  0.368421  0.105263  0.272727     24.000000
  0.421053  0.105263  0.272727     24.000000
  0.157895  0.157895  0.272727     12.000000
  0.210526  0.157895  0.272727     24.000000
  0.263158  0.157895  0.272727     24.000000
  0.315789  0.157895  0.272727     24.000000
  0.368421  0.157895  0.272727     24.000000
  0.421053  0.157895  0.272727     12.000000
  0.210526  0.210526  0.272727     12.000000
  0.263158  0.210526  0.272727     24.000000
  0.315789  0.210526  0.272727     24.000000
  0.368421  0.210526  0.272727     24.000000
  0.263158  0.263158  0.272727     12.000000
  0.315789  0.263158  0.272727     24.000000
  0.368421  0.263158  0.272727     12.000000
  0.315789  0.315789  0.272727     12.000000
  0.000000  0.000000  0.363636      2.000000
  0.052632  0.000000  0.363636     12.000000
  0.105263  0.000000  0.363636     12.000000
  0.157895  0.000000  0.363636     12.000000
  0.210526  0.000000  0.363636     12.000000
  0.263158  0.000000  0.363636     12.000000
  0.315789  0.000000  0.363636     12.000000
  0.368421  0.000000  0.363636     12.000000
  0.421053  0.000000  0.363636     12.000000
  0.473684  0.000000  0.363636     12.000000
  0.052632  0.052632  0.363636     12.000000
  0.105263  0.052632  0.363636     24.000000
  0.157895  0.052632  0.363636     24.000000
  0.210526  0.052632  0.363636     24.000000
  0.263158  0.052632  0.363636     24.000000
  0.315789  0.052632  0.363636     24.000000
  0.368421  0.052632  0.363636     24.000000
  0.421053  0.052632  0.363636     24.000000
  0.473684  0.052632  0.363636     12.000000
  0.105263  0.105263  0.363636     12.000000
  0.157895  0.105263  0.363636     24.000000
  0.210526  0.105263  0.363636     24.000000
  0.263158  0.105263  0.363636     24.000000
  0.315789  0.105263  0.363636     24.000000
  0.368421  0.105263  0.363636     24.000000
  0.421053  0.105263  0.363636     24.000000
  0.157895  0.157895  0.363636     12.000000
  0.210526  0.157895  0.363636     24.000000
  0.263158  0.157895  0.363636     24.000000
  0.315789  0.157895  0.363636     24.000000
  0.368421  0.157895  0.363636     24.000000
  0.421053  0.157895  0.363636     12.000000
  0.210526  0.210526  0.363636     12.000000
  0.263158  0.210526  0.363636     24.000000
  0.315789  0.210526  0.363636     24.000000
  0.368421  0.210526  0.363636     24.000000
  0.263158  0.263158  0.363636     12.000000
  0.315789  0.263158  0.363636     24.000000
  0.368421  0.263158  0.363636     12.000000
  0.315789  0.315789  0.363636     12.000000
  0.000000  0.000000  0.454545      2.000000
  0.052632  0.000000  0.454545     12.000000
  0.105263  0.000000  0.454545     12.000000
  0.157895  0.000000  0.454545     12.000000
  0.210526  0.000000  0.454545     12.000000
  0.263158  0.000000  0.454545     12.000000
  0.315789  0.000000  0.454545     12.000000
  0.368421  0.000000  0.454545     12.000000
  0.421053  0.000000  0.454545     12.000000
  0.473684  0.000000  0.454545     12.000000
  0.052632  0.052632  0.454545     12.000000
  0.105263  0.052632  0.454545     24.000000
  0.157895  0.052632  0.454545     24.000000
  0.210526  0.052632  0.454545     24.000000
  0.263158  0.052632  0.454545     24.000000
  0.315789  0.052632  0.454545     24.000000
  0.368421  0.052632  0.454545     24.000000
  0.421053  0.052632  0.454545     24.000000
  0.473684  0.052632  0.454545     12.000000
  0.105263  0.105263  0.454545     12.000000
  0.157895  0.105263  0.454545     24.000000
  0.210526  0.105263  0.454545     24.000000
  0.263158  0.105263  0.454545     24.000000
  0.315789  0.105263  0.454545     24.000000
  0.368421  0.105263  0.454545     24.000000
  0.421053  0.105263  0.454545     24.000000
  0.157895  0.157895  0.454545     12.000000
  0.210526  0.157895  0.454545     24.000000
  0.263158  0.157895  0.454545     24.000000
  0.315789  0.157895  0.454545     24.000000
  0.368421  0.157895  0.454545     24.000000
  0.421053  0.157895  0.454545     12.000000
  0.210526  0.210526  0.454545     12.000000
  0.263158  0.210526  0.454545     24.000000
  0.315789  0.210526  0.454545     24.000000
  0.368421  0.210526  0.454545     24.000000
  0.263158  0.263158  0.454545     12.000000
  0.315789  0.263158  0.454545     24.000000
  0.368421  0.263158  0.454545     12.000000
  0.315789  0.315789  0.454545     12.000000
 
 Following cartesian coordinates:
            Coordinates               Weight
  0.000000  0.000000  0.000000      1.000000
  0.017144 -0.009898  0.000000      6.000000
  0.034288 -0.019796  0.000000      6.000000
  0.051432 -0.029694  0.000000      6.000000
  0.068575 -0.039592  0.000000      6.000000
  0.085719 -0.049490  0.000000      6.000000
  0.102863 -0.059388  0.000000      6.000000
  0.120007 -0.069286  0.000000      6.000000
  0.137151 -0.079184  0.000000      6.000000
  0.154295 -0.089082  0.000000      6.000000
  0.034288  0.000000  0.000000      6.000000
  0.051432 -0.009898  0.000000     12.000000
  0.068575 -0.019796  0.000000     12.000000
  0.085719 -0.029694  0.000000     12.000000
  0.102863 -0.039592  0.000000     12.000000
  0.120007 -0.049490  0.000000     12.000000
  0.137151 -0.059388  0.000000     12.000000
  0.154295 -0.069286  0.000000     12.000000
  0.171438 -0.079184  0.000000      6.000000
  0.068575  0.000000  0.000000      6.000000
  0.085719 -0.009898  0.000000     12.000000
  0.102863 -0.019796  0.000000     12.000000
  0.120007 -0.029694  0.000000     12.000000
  0.137151 -0.039592  0.000000     12.000000
  0.154295 -0.049490  0.000000     12.000000
  0.171438 -0.059388  0.000000     12.000000
  0.102863  0.000000  0.000000      6.000000
  0.120007 -0.009898  0.000000     12.000000
  0.137151 -0.019796  0.000000     12.000000
  0.154295 -0.029694  0.000000     12.000000
  0.171438 -0.039592  0.000000     12.000000
  0.188582 -0.049490  0.000000      6.000000
  0.137151  0.000000  0.000000      6.000000
  0.154295 -0.009898  0.000000     12.000000
  0.171438 -0.019796  0.000000     12.000000
  0.188582 -0.029694  0.000000     12.000000
  0.171438  0.000000  0.000000      6.000000
  0.188582 -0.009898  0.000000     12.000000
  0.205726 -0.019796  0.000000      6.000000
  0.205726  0.000000  0.000000      6.000000
  0.000000  0.000000  0.019301      2.000000
  0.017144 -0.009898  0.019301     12.000000
  0.034288 -0.019796  0.019301     12.000000
  0.051432 -0.029694  0.019301     12.000000
  0.068575 -0.039592  0.019301     12.000000
  0.085719 -0.049490  0.019301     12.000000
  0.102863 -0.059388  0.019301     12.000000
  0.120007 -0.069286  0.019301     12.000000
  0.137151 -0.079184  0.019301     12.000000
  0.154295 -0.089082  0.019301     12.000000
  0.034288  0.000000  0.019301     12.000000
  0.051432 -0.009898  0.019301     24.000000
  0.068575 -0.019796  0.019301     24.000000
  0.085719 -0.029694  0.019301     24.000000
  0.102863 -0.039592  0.019301     24.000000
  0.120007 -0.049490  0.019301     24.000000
  0.137151 -0.059388  0.019301     24.000000
  0.154295 -0.069286  0.019301     24.000000
  0.171438 -0.079184  0.019301     12.000000
  0.068575  0.000000  0.019301     12.000000
  0.085719 -0.009898  0.019301     24.000000
  0.102863 -0.019796  0.019301     24.000000
  0.120007 -0.029694  0.019301     24.000000
  0.137151 -0.039592  0.019301     24.000000
  0.154295 -0.049490  0.019301     24.000000
  0.171438 -0.059388  0.019301     24.000000
  0.102863  0.000000  0.019301     12.000000
  0.120007 -0.009898  0.019301     24.000000
  0.137151 -0.019796  0.019301     24.000000
  0.154295 -0.029694  0.019301     24.000000
  0.171438 -0.039592  0.019301     24.000000
  0.188582 -0.049490  0.019301     12.000000
  0.137151  0.000000  0.019301     12.000000
  0.154295 -0.009898  0.019301     24.000000
  0.171438 -0.019796  0.019301     24.000000
  0.188582 -0.029694  0.019301     24.000000
  0.171438  0.000000  0.019301     12.000000
  0.188582 -0.009898  0.019301     24.000000
  0.205726 -0.019796  0.019301     12.000000
  0.205726  0.000000  0.019301     12.000000
  0.000000  0.000000  0.038603      2.000000
  0.017144 -0.009898  0.038603     12.000000
  0.034288 -0.019796  0.038603     12.000000
  0.051432 -0.029694  0.038603     12.000000
  0.068575 -0.039592  0.038603     12.000000
  0.085719 -0.049490  0.038603     12.000000
  0.102863 -0.059388  0.038603     12.000000
  0.120007 -0.069286  0.038603     12.000000
  0.137151 -0.079184  0.038603     12.000000
  0.154295 -0.089082  0.038603     12.000000
  0.034288  0.000000  0.038603     12.000000
  0.051432 -0.009898  0.038603     24.000000
  0.068575 -0.019796  0.038603     24.000000
  0.085719 -0.029694  0.038603     24.000000
  0.102863 -0.039592  0.038603     24.000000
  0.120007 -0.049490  0.038603     24.000000
  0.137151 -0.059388  0.038603     24.000000
  0.154295 -0.069286  0.038603     24.000000
  0.171438 -0.079184  0.038603     12.000000
  0.068575  0.000000  0.038603     12.000000
  0.085719 -0.009898  0.038603     24.000000
  0.102863 -0.019796  0.038603     24.000000
  0.120007 -0.029694  0.038603     24.000000
  0.137151 -0.039592  0.038603     24.000000
  0.154295 -0.049490  0.038603     24.000000
  0.171438 -0.059388  0.038603     24.000000
  0.102863  0.000000  0.038603     12.000000
  0.120007 -0.009898  0.038603     24.000000
  0.137151 -0.019796  0.038603     24.000000
  0.154295 -0.029694  0.038603     24.000000
  0.171438 -0.039592  0.038603     24.000000
  0.188582 -0.049490  0.038603     12.000000
  0.137151  0.000000  0.038603     12.000000
  0.154295 -0.009898  0.038603     24.000000
  0.171438 -0.019796  0.038603     24.000000
  0.188582 -0.029694  0.038603     24.000000
  0.171438  0.000000  0.038603     12.000000
  0.188582 -0.009898  0.038603     24.000000
  0.205726 -0.019796  0.038603     12.000000
  0.205726  0.000000  0.038603     12.000000
  0.000000  0.000000  0.057904      2.000000
  0.017144 -0.009898  0.057904     12.000000
  0.034288 -0.019796  0.057904     12.000000
  0.051432 -0.029694  0.057904     12.000000
  0.068575 -0.039592  0.057904     12.000000
  0.085719 -0.049490  0.057904     12.000000
  0.102863 -0.059388  0.057904     12.000000
  0.120007 -0.069286  0.057904     12.000000
  0.137151 -0.079184  0.057904     12.000000
  0.154295 -0.089082  0.057904     12.000000
  0.034288  0.000000  0.057904     12.000000
  0.051432 -0.009898  0.057904     24.000000
  0.068575 -0.019796  0.057904     24.000000
  0.085719 -0.029694  0.057904     24.000000
  0.102863 -0.039592  0.057904     24.000000
  0.120007 -0.049490  0.057904     24.000000
  0.137151 -0.059388  0.057904     24.000000
  0.154295 -0.069286  0.057904     24.000000
  0.171438 -0.079184  0.057904     12.000000
  0.068575  0.000000  0.057904     12.000000
  0.085719 -0.009898  0.057904     24.000000
  0.102863 -0.019796  0.057904     24.000000
  0.120007 -0.029694  0.057904     24.000000
  0.137151 -0.039592  0.057904     24.000000
  0.154295 -0.049490  0.057904     24.000000
  0.171438 -0.059388  0.057904     24.000000
  0.102863  0.000000  0.057904     12.000000
  0.120007 -0.009898  0.057904     24.000000
  0.137151 -0.019796  0.057904     24.000000
  0.154295 -0.029694  0.057904     24.000000
  0.171438 -0.039592  0.057904     24.000000
  0.188582 -0.049490  0.057904     12.000000
  0.137151  0.000000  0.057904     12.000000
  0.154295 -0.009898  0.057904     24.000000
  0.171438 -0.019796  0.057904     24.000000
  0.188582 -0.029694  0.057904     24.000000
  0.171438  0.000000  0.057904     12.000000
  0.188582 -0.009898  0.057904     24.000000
  0.205726 -0.019796  0.057904     12.000000
  0.205726  0.000000  0.057904     12.000000
  0.000000  0.000000  0.077205      2.000000
  0.017144 -0.009898  0.077205     12.000000
  0.034288 -0.019796  0.077205     12.000000
  0.051432 -0.029694  0.077205     12.000000
  0.068575 -0.039592  0.077205     12.000000
  0.085719 -0.049490  0.077205     12.000000
  0.102863 -0.059388  0.077205     12.000000
  0.120007 -0.069286  0.077205     12.000000
  0.137151 -0.079184  0.077205     12.000000
  0.154295 -0.089082  0.077205     12.000000
  0.034288  0.000000  0.077205     12.000000
  0.051432 -0.009898  0.077205     24.000000
  0.068575 -0.019796  0.077205     24.000000
  0.085719 -0.029694  0.077205     24.000000
  0.102863 -0.039592  0.077205     24.000000
  0.120007 -0.049490  0.077205     24.000000
  0.137151 -0.059388  0.077205     24.000000
  0.154295 -0.069286  0.077205     24.000000
  0.171438 -0.079184  0.077205     12.000000
  0.068575  0.000000  0.077205     12.000000
  0.085719 -0.009898  0.077205     24.000000
  0.102863 -0.019796  0.077205     24.000000
  0.120007 -0.029694  0.077205     24.000000
  0.137151 -0.039592  0.077205     24.000000
  0.154295 -0.049490  0.077205     24.000000
  0.171438 -0.059388  0.077205     24.000000
  0.102863  0.000000  0.077205     12.000000
  0.120007 -0.009898  0.077205     24.000000
  0.137151 -0.019796  0.077205     24.000000
  0.154295 -0.029694  0.077205     24.000000
  0.171438 -0.039592  0.077205     24.000000
  0.188582 -0.049490  0.077205     12.000000
  0.137151  0.000000  0.077205     12.000000
  0.154295 -0.009898  0.077205     24.000000
  0.171438 -0.019796  0.077205     24.000000
  0.188582 -0.029694  0.077205     24.000000
  0.171438  0.000000  0.077205     12.000000
  0.188582 -0.009898  0.077205     24.000000
  0.205726 -0.019796  0.077205     12.000000
  0.205726  0.000000  0.077205     12.000000
  0.000000  0.000000  0.096506      2.000000
  0.017144 -0.009898  0.096506     12.000000
  0.034288 -0.019796  0.096506     12.000000
  0.051432 -0.029694  0.096506     12.000000
  0.068575 -0.039592  0.096506     12.000000
  0.085719 -0.049490  0.096506     12.000000
  0.102863 -0.059388  0.096506     12.000000
  0.120007 -0.069286  0.096506     12.000000
  0.137151 -0.079184  0.096506     12.000000
  0.154295 -0.089082  0.096506     12.000000
  0.034288  0.000000  0.096506     12.000000
  0.051432 -0.009898  0.096506     24.000000
  0.068575 -0.019796  0.096506     24.000000
  0.085719 -0.029694  0.096506     24.000000
  0.102863 -0.039592  0.096506     24.000000
  0.120007 -0.049490  0.096506     24.000000
  0.137151 -0.059388  0.096506     24.000000
  0.154295 -0.069286  0.096506     24.000000
  0.171438 -0.079184  0.096506     12.000000
  0.068575  0.000000  0.096506     12.000000
  0.085719 -0.009898  0.096506     24.000000
  0.102863 -0.019796  0.096506     24.000000
  0.120007 -0.029694  0.096506     24.000000
  0.137151 -0.039592  0.096506     24.000000
  0.154295 -0.049490  0.096506     24.000000
  0.171438 -0.059388  0.096506     24.000000
  0.102863  0.000000  0.096506     12.000000
  0.120007 -0.009898  0.096506     24.000000
  0.137151 -0.019796  0.096506     24.000000
  0.154295 -0.029694  0.096506     24.000000
  0.171438 -0.039592  0.096506     24.000000
  0.188582 -0.049490  0.096506     12.000000
  0.137151  0.000000  0.096506     12.000000
  0.154295 -0.009898  0.096506     24.000000
  0.171438 -0.019796  0.096506     24.000000
  0.188582 -0.029694  0.096506     24.000000
  0.171438  0.000000  0.096506     12.000000
  0.188582 -0.009898  0.096506     24.000000
  0.205726 -0.019796  0.096506     12.000000
  0.205726  0.000000  0.096506     12.000000
 


--------------------------------------------------------------------------------------------------------




 Dimension of arrays:
   k-points           NKPTS =    240   k-points in BZ     NKDIM =    240   number of bands    NBANDS=     24
   number of dos      NEDOS =    301   number of ions     NIONS =      6
   non local maximal  LDIM  =      6   non local SUM 2l+1 LMDIM =     18
   total plane-waves  NPLWV =  20736
   max r-space proj   IRMAX =      1   max aug-charges    IRDMAX= 188882
   dimension x,y,z NGX =    24 NGY =   24 NGZ =   36
   dimension x,y,z NGXF=    48 NGYF=   48 NGZF=   72
   support grid    NGXF=    96 NGYF=   96 NGZF=  144
   ions per type =               2   4
 NGX,Y,Z   is equivalent  to a cutoff of  13.00, 13.00, 12.71 a.u.
 NGXF,Y,Z  is equivalent  to a cutoff of  25.99, 25.99, 25.41 a.u.


 I would recommend the setting:
   dimension x,y,z NGX =    23 NGY =   23 NGZ =   35
 SYSTEM =  unknown system                          
 POSCAR =  Mo2 H4                                  

 Startparameter for this run:
   NWRITE =      2    write-flag & timer
   PREC   = accura    normal or accurate (medium, high low for compatibility)
   ISTART =      0    job   : 0-new  1-cont  2-samecut
   ICHARG =      2    charge: 1-file 2-atom 10-const
   ISPIN  =      2    spin polarized calculation?
   LNONCOLLINEAR =      F non collinear calculations
   LSORBIT =      F    spin-orbit coupling
   INIWAV =      1    electr: 0-lowe 1-rand  2-diag
   LASPH  =      F    aspherical Exc in radial PAW
   METAGGA=      F    non-selfconsistent MetaGGA calc.

 Electronic Relaxation 1
   ENCUT  =  520.0 eV  38.22 Ry    6.18 a.u.   5.71  5.71  8.76*2*pi/ulx,y,z
   ENINI  =  520.0     initial cutoff
   ENAUG  =  446.0 eV  augmentation charge cutoff
   NELM   =    140;   NELMIN=  6; NELMDL= -5     # of ELM steps 
   EDIFF  = 0.1E-03   stopping-criterion for ELM
   LREAL  =      F    real-space projection
   NLSPLINE    = F    spline interpolate recip. space projectors
   LCOMPAT=      F    compatible to vasp.4.4
   GGA_COMPAT  = T    GGA compatible to vasp.4.4-vasp.4.6
   LMAXPAW     = -100 max onsite density
   LMAXMIX     =    4 max onsite mixed and CHGCAR
   VOSKOWN=      0    Vosko Wilk Nusair interpolation
   ROPT   =    0.00000   0.00000
 Ionic relaxation
   EDIFFG = -.1E-01   stopping-criterion for IOM
   NSW    =      0    number of steps for IOM
   NBLOCK =      1;   KBLOCK =      1    inner block; outer block 
   IBRION =     -1    ionic relax: 0-MD 1-quasi-New 2-CG
   NFREE  =      0    steps in history (QN), initial steepest desc. (CG)
   ISIF   =      2    stress and relaxation
   IWAVPR =     10    prediction:  0-non 1-charg 2-wave 3-comb
   ISYM   =      2    0-nonsym 1-usesym 2-fastsym
   LCORR  =      T    Harris-Foulkes like correction to forces

   POTIM  = 0.0500    time-step for ionic-motion
   TEIN   =    0.0    initial temperature
   TEBEG  =    0.0;   TEEND  =   0.0 temperature during run
   SMASS  =  -3.00    Nose mass-parameter (am)
   estimated Nose-frequenzy (Omega)   =  0.10E-29 period in steps =****** mass=  -0.215E-27a.u.
   SCALEE = 1.0000    scale energy and forces
   NPACO  =    256;   APACO  = 16.0  distance and # of slots for P.C.
   PSTRESS=    0.0 pullay stress

  Mass of Ions in am
   POMASS =  95.94  1.00
  Ionic Valenz
   ZVAL   =  14.00  1.00
  Atomic Wigner-Seitz radii
   RWIGS  =  -1.00 -1.00
  virtual crystal weights 
   VCA    =   1.00  1.00
   NELECT =      32.0000    total number of electrons
   NUPDOWN=      -1.0000    fix difference up-down

 DOS related values:
   EMIN   =  10.00;   EMAX   =-10.00  energy-range for DOS
   EFERMI =   0.00
   ISMEAR =     0;   SIGMA  =   0.05  broadening in eV -4-tet -1-fermi 0-gaus

 Electronic relaxation 2 (details)
   IALGO  =     38    algorithm
   LDIAG  =      T    sub-space diagonalisation (order eigenvalues)
   LSUBROT=      F    optimize rotation matrix (better conditioning)
   TURBO    =      0    0=normal 1=particle mesh
   IRESTART =      0    0=no restart 2=restart with 2 vectors
   NREBOOT  =      0    no. of reboots
   NMIN     =      0    reboot dimension
   EREF     =   0.00    reference energy to select bands
   IMIX   =      4    mixing-type and parameters
     AMIX     =   0.10;   BMIX     =  1.20
     AMIX_MAG =   0.40;   BMIX_MAG =  1.20
     AMIN     =   0.10
     WC   =   100.;   INIMIX=   1;  MIXPRE=   1;  MAXMIX= -45

 Intra band minimization:
   WEIMIN = 0.0000     energy-eigenvalue tresh-hold
   EBREAK =  0.10E-05  absolut break condition
   DEPER  =   0.30     relativ break condition  

   TIME   =   0.40     timestep for ELM

  volume/ion in A,a.u.               =       6.41        43.24
  Fermi-wavevector in a.u.,A,eV,Ry     =   1.539981  2.910142 32.266785  2.371542
  Thomas-Fermi vector in A             =   2.646133
 
 Write flags
   LWAVE  =      F    write WAVECAR
   LCHARG =      T    write CHGCAR
   LVTOT  =      F    write LOCPOT, total local potential
   LVHAR  =      F    write LOCPOT, Hartree potential only
   LELF   =      F    write electronic localiz. function (ELF)
   LORBIT =     11    0 simple, 1 ext, 2 COOP (PROOUT)


 Dipole corrections
   LMONO  =      F    monopole corrections only (constant potential shift)
   LDIPOL =      F    correct potential (dipole corrections)
   IDIPOL =      0    1-x, 2-y, 3-z, 4-all directions 
   EPSILON=  1.0000000 bulk dielectric constant

 LDA+U is selected, type is set to LDAUTYPE =  2
   angular momentum for each species LDAUL =     2   -1
   U (eV)           for each species LDAUU =   2.4  0.0
   J (eV)           for each species LDAUJ =   0.0  0.0
 Exchange correlation treatment:
   GGA     =    --    GGA type
   LEXCH   =     8    internal setting for exchange type
   VOSKOWN=      0    Vosko Wilk Nusair interpolation
   LHFCALC =     F    Hartree Fock is set to
   LHFONE  =     F    Hartree Fock one center treatment
   AEXX    =    0.0000 exact exchange contribution

 Linear response parameters
   LEPSILON=     F    determine dielectric tensor
   LRPA    =     F    only Hartree local field effects (RPA)
   LNABLA  =     F    use nabla operator in PAW spheres
   LVEL    =     F    velocity operator in full k-point grid
   LINTERFAST=   F  fast interpolation
   KINTER  =     0    interpolate to denser k-point grid
   CSHIFT  =0.1000    complex shift for real part using Kramers Kronig
   OMEGAMAX=  -1.0    maximum frequency
   DEG_THRESHOLD= 0.2000000E-02 threshold for treating states as degnerate
   RTIME   =    0.100 relaxation time in fs

 Orbital magnetization related:
   ORBITALMAG=     F  switch on orbital magnetization
   LCHIMAG   =     F  perturbation theory with respect to B field
   DQ        =  0.001000  dq finite difference perturbation B field



--------------------------------------------------------------------------------------------------------


 Static calculation
 charge density and potential will be updated during run
 spin polarized calculation
 Variant of blocked Davidson
 Davidson routine will perform the subspace rotation
 perform sub-space diagonalisation
    after iterative eigenvector-optimisation
 modified Broyden-mixing scheme, WC =      100.0
 initial mixing is a Kerker type mixing with AMIX =  0.1000 and BMIX =      1.2000
 Hartree-type preconditioning will be used
 using additional bands            8
 reciprocal scheme for non local part
 use partial core corrections
 calculate Harris-corrections to forces 
   (improved forces if not selfconsistent)
 use gradient corrections 
 use of overlap-Matrix (Vanderbilt PP)
 Gauss-broadening in eV      SIGMA  =   0.05


--------------------------------------------------------------------------------------------------------


  energy-cutoff  :      520.00
  volume of cell :       38.44
      direct lattice vectors                 reciprocal lattice vectors
     1.535000000 -2.658698000  0.000000000     0.325732899 -0.188061976  0.000000000
     1.535000000  2.658698000  0.000000000     0.325732899  0.188061976  0.000000000
     0.000000000  0.000000000  4.710000000     0.000000000  0.000000000  0.212314225

  length of vectors
     3.070000009  3.070000009  4.710000000     0.376123954  0.376123954  0.212314225


 
 k-points in units of 2pi/SCALE and weight: K-Mesh                                  
   0.00000000  0.00000000  0.00000000       0.000
   0.01714384 -0.00989800  0.00000000       0.002
   0.03428767 -0.01979600  0.00000000       0.002
   0.05143151 -0.02969400  0.00000000       0.002
   0.06857535 -0.03959199  0.00000000       0.002
   0.08571918 -0.04948999  0.00000000       0.002
   0.10286302 -0.05938799  0.00000000       0.002
   0.12000686 -0.06928599  0.00000000       0.002
   0.13715069 -0.07918399  0.00000000       0.002
   0.15429453 -0.08908199  0.00000000       0.002
   0.03428767  0.00000000  0.00000000       0.002
   0.05143151 -0.00989800  0.00000000       0.003
   0.06857535 -0.01979600  0.00000000       0.003
   0.08571918 -0.02969400  0.00000000       0.003
   0.10286302 -0.03959199  0.00000000       0.003
   0.12000686 -0.04948999  0.00000000       0.003
   0.13715069 -0.05938799  0.00000000       0.003
   0.15429453 -0.06928599  0.00000000       0.003
   0.17143837 -0.07918399  0.00000000       0.002
   0.06857535  0.00000000  0.00000000       0.002
   0.08571918 -0.00989800  0.00000000       0.003
   0.10286302 -0.01979600  0.00000000       0.003
   0.12000686 -0.02969400  0.00000000       0.003
   0.13715069 -0.03959199  0.00000000       0.003
   0.15429453 -0.04948999  0.00000000       0.003
   0.17143837 -0.05938799  0.00000000       0.003
   0.10286302  0.00000000  0.00000000       0.002
   0.12000686 -0.00989800  0.00000000       0.003
   0.13715069 -0.01979600  0.00000000       0.003
   0.15429453 -0.02969400  0.00000000       0.003
   0.17143837 -0.03959199  0.00000000       0.003
   0.18858220 -0.04948999  0.00000000       0.002
   0.13715069  0.00000000  0.00000000       0.002
   0.15429453 -0.00989800  0.00000000       0.003
   0.17143837 -0.01979600  0.00000000       0.003
   0.18858220 -0.02969400  0.00000000       0.003
   0.17143837  0.00000000  0.00000000       0.002
   0.18858220 -0.00989800  0.00000000       0.003
   0.20572604 -0.01979600  0.00000000       0.002
   0.20572604  0.00000000  0.00000000       0.002
   0.00000000  0.00000000  0.01930129       0.001
   0.01714384 -0.00989800  0.01930129       0.003
   0.03428767 -0.01979600  0.01930129       0.003
   0.05143151 -0.02969400  0.01930129       0.003
   0.06857535 -0.03959199  0.01930129       0.003
   0.08571918 -0.04948999  0.01930129       0.003
   0.10286302 -0.05938799  0.01930129       0.003
   0.12000686 -0.06928599  0.01930129       0.003
   0.13715069 -0.07918399  0.01930129       0.003
   0.15429453 -0.08908199  0.01930129       0.003
   0.03428767  0.00000000  0.01930129       0.003
   0.05143151 -0.00989800  0.01930129       0.006
   0.06857535 -0.01979600  0.01930129       0.006
   0.08571918 -0.02969400  0.01930129       0.006
   0.10286302 -0.03959199  0.01930129       0.006
   0.12000686 -0.04948999  0.01930129       0.006
   0.13715069 -0.05938799  0.01930129       0.006
   0.15429453 -0.06928599  0.01930129       0.006
   0.17143837 -0.07918399  0.01930129       0.003
   0.06857535  0.00000000  0.01930129       0.003
   0.08571918 -0.00989800  0.01930129       0.006
   0.10286302 -0.01979600  0.01930129       0.006
   0.12000686 -0.02969400  0.01930129       0.006
   0.13715069 -0.03959199  0.01930129       0.006
   0.15429453 -0.04948999  0.01930129       0.006
   0.17143837 -0.05938799  0.01930129       0.006
   0.10286302  0.00000000  0.01930129       0.003
   0.12000686 -0.00989800  0.01930129       0.006
   0.13715069 -0.01979600  0.01930129       0.006
   0.15429453 -0.02969400  0.01930129       0.006
   0.17143837 -0.03959199  0.01930129       0.006
   0.18858220 -0.04948999  0.01930129       0.003
   0.13715069  0.00000000  0.01930129       0.003
   0.15429453 -0.00989800  0.01930129       0.006
   0.17143837 -0.01979600  0.01930129       0.006
   0.18858220 -0.02969400  0.01930129       0.006
   0.17143837  0.00000000  0.01930129       0.003
   0.18858220 -0.00989800  0.01930129       0.006
   0.20572604 -0.01979600  0.01930129       0.003
   0.20572604  0.00000000  0.01930129       0.003
   0.00000000  0.00000000  0.03860259       0.001
   0.01714384 -0.00989800  0.03860259       0.003
   0.03428767 -0.01979600  0.03860259       0.003
   0.05143151 -0.02969400  0.03860259       0.003
   0.06857535 -0.03959199  0.03860259       0.003
   0.08571918 -0.04948999  0.03860259       0.003
   0.10286302 -0.05938799  0.03860259       0.003
   0.12000686 -0.06928599  0.03860259       0.003
   0.13715069 -0.07918399  0.03860259       0.003
   0.15429453 -0.08908199  0.03860259       0.003
   0.03428767  0.00000000  0.03860259       0.003
   0.05143151 -0.00989800  0.03860259       0.006
   0.06857535 -0.01979600  0.03860259       0.006
   0.08571918 -0.02969400  0.03860259       0.006
   0.10286302 -0.03959199  0.03860259       0.006
   0.12000686 -0.04948999  0.03860259       0.006
   0.13715069 -0.05938799  0.03860259       0.006
   0.15429453 -0.06928599  0.03860259       0.006
   0.17143837 -0.07918399  0.03860259       0.003
   0.06857535  0.00000000  0.03860259       0.003
   0.08571918 -0.00989800  0.03860259       0.006
   0.10286302 -0.01979600  0.03860259       0.006
   0.12000686 -0.02969400  0.03860259       0.006
   0.13715069 -0.03959199  0.03860259       0.006
   0.15429453 -0.04948999  0.03860259       0.006
   0.17143837 -0.05938799  0.03860259       0.006
   0.10286302  0.00000000  0.03860259       0.003
   0.12000686 -0.00989800  0.03860259       0.006
   0.13715069 -0.01979600  0.03860259       0.006
   0.15429453 -0.02969400  0.03860259       0.006
   0.17143837 -0.03959199  0.03860259       0.006
   0.18858220 -0.04948999  0.03860259       0.003
   0.13715069  0.00000000  0.03860259       0.003
   0.15429453 -0.00989800  0.03860259       0.006
   0.17143837 -0.01979600  0.03860259       0.006
   0.18858220 -0.02969400  0.03860259       0.006
   0.17143837  0.00000000  0.03860259       0.003
   0.18858220 -0.00989800  0.03860259       0.006
   0.20572604 -0.01979600  0.03860259       0.003
   0.20572604  0.00000000  0.03860259       0.003
   0.00000000  0.00000000  0.05790388       0.001
   0.01714384 -0.00989800  0.05790388       0.003
   0.03428767 -0.01979600  0.05790388       0.003
   0.05143151 -0.02969400  0.05790388       0.003
   0.06857535 -0.03959199  0.05790388       0.003
   0.08571918 -0.04948999  0.05790388       0.003
   0.10286302 -0.05938799  0.05790388       0.003
   0.12000686 -0.06928599  0.05790388       0.003
   0.13715069 -0.07918399  0.05790388       0.003
   0.15429453 -0.08908199  0.05790388       0.003
   0.03428767  0.00000000  0.05790388       0.003
   0.05143151 -0.00989800  0.05790388       0.006
   0.06857535 -0.01979600  0.05790388       0.006
   0.08571918 -0.02969400  0.05790388       0.006
   0.10286302 -0.03959199  0.05790388       0.006
   0.12000686 -0.04948999  0.05790388       0.006
   0.13715069 -0.05938799  0.05790388       0.006
   0.15429453 -0.06928599  0.05790388       0.006
   0.17143837 -0.07918399  0.05790388       0.003
   0.06857535  0.00000000  0.05790388       0.003
   0.08571918 -0.00989800  0.05790388       0.006
   0.10286302 -0.01979600  0.05790388       0.006
   0.12000686 -0.02969400  0.05790388       0.006
   0.13715069 -0.03959199  0.05790388       0.006
   0.15429453 -0.04948999  0.05790388       0.006
   0.17143837 -0.05938799  0.05790388       0.006
   0.10286302  0.00000000  0.05790388       0.003
   0.12000686 -0.00989800  0.05790388       0.006
   0.13715069 -0.01979600  0.05790388       0.006
   0.15429453 -0.02969400  0.05790388       0.006
   0.17143837 -0.03959199  0.05790388       0.006
   0.18858220 -0.04948999  0.05790388       0.003
   0.13715069  0.00000000  0.05790388       0.003
   0.15429453 -0.00989800  0.05790388       0.006
   0.17143837 -0.01979600  0.05790388       0.006
   0.18858220 -0.02969400  0.05790388       0.006
   0.17143837  0.00000000  0.05790388       0.003
   0.18858220 -0.00989800  0.05790388       0.006
   0.20572604 -0.01979600  0.05790388       0.003
   0.20572604  0.00000000  0.05790388       0.003
   0.00000000  0.00000000  0.07720517       0.001
   0.01714384 -0.00989800  0.07720517       0.003
   0.03428767 -0.01979600  0.07720517       0.003
   0.05143151 -0.02969400  0.07720517       0.003
   0.06857535 -0.03959199  0.07720517       0.003
   0.08571918 -0.04948999  0.07720517       0.003
   0.10286302 -0.05938799  0.07720517       0.003
   0.12000686 -0.06928599  0.07720517       0.003
   0.13715069 -0.07918399  0.07720517       0.003
   0.15429453 -0.08908199  0.07720517       0.003
   0.03428767  0.00000000  0.07720517       0.003
   0.05143151 -0.00989800  0.07720517       0.006
   0.06857535 -0.01979600  0.07720517       0.006
   0.08571918 -0.02969400  0.07720517       0.006
   0.10286302 -0.03959199  0.07720517       0.006
   0.12000686 -0.04948999  0.07720517       0.006
   0.13715069 -0.05938799  0.07720517       0.006
   0.15429453 -0.06928599  0.07720517       0.006
   0.17143837 -0.07918399  0.07720517       0.003
   0.06857535  0.00000000  0.07720517       0.003
   0.08571918 -0.00989800  0.07720517       0.006
   0.10286302 -0.01979600  0.07720517       0.006
   0.12000686 -0.02969400  0.07720517       0.006
   0.13715069 -0.03959199  0.07720517       0.006
   0.15429453 -0.04948999  0.07720517       0.006
   0.17143837 -0.05938799  0.07720517       0.006
   0.10286302  0.00000000  0.07720517       0.003
   0.12000686 -0.00989800  0.07720517       0.006
   0.13715069 -0.01979600  0.07720517       0.006
   0.15429453 -0.02969400  0.07720517       0.006
   0.17143837 -0.03959199  0.07720517       0.006
   0.18858220 -0.04948999  0.07720517       0.003
   0.13715069  0.00000000  0.07720517       0.003
   0.15429453 -0.00989800  0.07720517       0.006
   0.17143837 -0.01979600  0.07720517       0.006
   0.18858220 -0.02969400  0.07720517       0.006
   0.17143837  0.00000000  0.07720517       0.003
   0.18858220 -0.00989800  0.07720517       0.006
   0.20572604 -0.01979600  0.07720517       0.003
   0.20572604  0.00000000  0.07720517       0.003
   0.00000000  0.00000000  0.09650647       0.001
   0.01714384 -0.00989800  0.09650647       0.003
   0.03428767 -0.01979600  0.09650647       0.003
   0.05143151 -0.02969400  0.09650647       0.003
   0.06857535 -0.03959199  0.09650647       0.003
   0.08571918 -0.04948999  0.09650647       0.003
   0.10286302 -0.05938799  0.09650647       0.003
   0.12000686 -0.06928599  0.09650647       0.003
   0.13715069 -0.07918399  0.09650647       0.003
   0.15429453 -0.08908199  0.09650647       0.003
   0.03428767  0.00000000  0.09650647       0.003
   0.05143151 -0.00989800  0.09650647       0.006
   0.06857535 -0.01979600  0.09650647       0.006
   0.08571918 -0.02969400  0.09650647       0.006
   0.10286302 -0.03959199  0.09650647       0.006
   0.12000686 -0.04948999  0.09650647       0.006
   0.13715069 -0.05938799  0.09650647       0.006
   0.15429453 -0.06928599  0.09650647       0.006
   0.17143837 -0.07918399  0.09650647       0.003
   0.06857535  0.00000000  0.09650647       0.003
   0.08571918 -0.00989800  0.09650647       0.006
   0.10286302 -0.01979600  0.09650647       0.006
   0.12000686 -0.02969400  0.09650647       0.006
   0.13715069 -0.03959199  0.09650647       0.006
   0.15429453 -0.04948999  0.09650647       0.006
   0.17143837 -0.05938799  0.09650647       0.006
   0.10286302  0.00000000  0.09650647       0.003
   0.12000686 -0.00989800  0.09650647       0.006
   0.13715069 -0.01979600  0.09650647       0.006
   0.15429453 -0.02969400  0.09650647       0.006
   0.17143837 -0.03959199  0.09650647       0.006
   0.18858220 -0.04948999  0.09650647       0.003
   0.13715069  0.00000000  0.09650647       0.003
   0.15429453 -0.00989800  0.09650647       0.006
   0.17143837 -0.01979600  0.09650647       0.006
   0.18858220 -0.02969400  0.09650647       0.006
   0.17143837  0.00000000  0.09650647       0.003
   0.18858220 -0.00989800  0.09650647       0.006
   0.20572604 -0.01979600  0.09650647       0.003
   0.20572604  0.00000000  0.09650647       0.003
 
 k-points in reciprocal lattice and weights: K-Mesh                                  
   0.00000000  0.00000000  0.00000000       0.000
   0.05263158  0.00000000  0.00000000       0.002
   0.10526316  0.00000000  0.00000000       0.002
   0.15789474  0.00000000  0.00000000       0.002
   0.21052632  0.00000000  0.00000000       0.002
   0.26315789  0.00000000  0.00000000       0.002
   0.31578947  0.00000000  0.00000000       0.002
   0.36842105  0.00000000  0.00000000       0.002
   0.42105263  0.00000000  0.00000000       0.002
   0.47368421  0.00000000  0.00000000       0.002
   0.05263158  0.05263158  0.00000000       0.002
   0.10526316  0.05263158  0.00000000       0.003
   0.15789474  0.05263158  0.00000000       0.003
   0.21052632  0.05263158  0.00000000       0.003
   0.26315789  0.05263158  0.00000000       0.003
   0.31578947  0.05263158  0.00000000       0.003
   0.36842105  0.05263158  0.00000000       0.003
   0.42105263  0.05263158  0.00000000       0.003
   0.47368421  0.05263158  0.00000000       0.002
   0.10526316  0.10526316  0.00000000       0.002
   0.15789474  0.10526316  0.00000000       0.003
   0.21052632  0.10526316  0.00000000       0.003
   0.26315789  0.10526316  0.00000000       0.003
   0.31578947  0.10526316  0.00000000       0.003
   0.36842105  0.10526316  0.00000000       0.003
   0.42105263  0.10526316  0.00000000       0.003
   0.15789474  0.15789474  0.00000000       0.002
   0.21052632  0.15789474  0.00000000       0.003
   0.26315789  0.15789474  0.00000000       0.003
   0.31578947  0.15789474  0.00000000       0.003
   0.36842105  0.15789474  0.00000000       0.003
   0.42105263  0.15789474  0.00000000       0.002
   0.21052632  0.21052632  0.00000000       0.002
   0.26315789  0.21052632  0.00000000       0.003
   0.31578947  0.21052632  0.00000000       0.003
   0.36842105  0.21052632  0.00000000       0.003
   0.26315789  0.26315789  0.00000000       0.002
   0.31578947  0.26315789  0.00000000       0.003
   0.36842105  0.26315789  0.00000000       0.002
   0.31578947  0.31578947  0.00000000       0.002
   0.00000000  0.00000000  0.09090909       0.001
   0.05263158  0.00000000  0.09090909       0.003
   0.10526316  0.00000000  0.09090909       0.003
   0.15789474  0.00000000  0.09090909       0.003
   0.21052632  0.00000000  0.09090909       0.003
   0.26315789  0.00000000  0.09090909       0.003
   0.31578947  0.00000000  0.09090909       0.003
   0.36842105  0.00000000  0.09090909       0.003
   0.42105263  0.00000000  0.09090909       0.003
   0.47368421  0.00000000  0.09090909       0.003
   0.05263158  0.05263158  0.09090909       0.003
   0.10526316  0.05263158  0.09090909       0.006
   0.15789474  0.05263158  0.09090909       0.006
   0.21052632  0.05263158  0.09090909       0.006
   0.26315789  0.05263158  0.09090909       0.006
   0.31578947  0.05263158  0.09090909       0.006
   0.36842105  0.05263158  0.09090909       0.006
   0.42105263  0.05263158  0.09090909       0.006
   0.47368421  0.05263158  0.09090909       0.003
   0.10526316  0.10526316  0.09090909       0.003
   0.15789474  0.10526316  0.09090909       0.006
   0.21052632  0.10526316  0.09090909       0.006
   0.26315789  0.10526316  0.09090909       0.006
   0.31578947  0.10526316  0.09090909       0.006
   0.36842105  0.10526316  0.09090909       0.006
   0.42105263  0.10526316  0.09090909       0.006
   0.15789474  0.15789474  0.09090909       0.003
   0.21052632  0.15789474  0.09090909       0.006
   0.26315789  0.15789474  0.09090909       0.006
   0.31578947  0.15789474  0.09090909       0.006
   0.36842105  0.15789474  0.09090909       0.006
   0.42105263  0.15789474  0.09090909       0.003
   0.21052632  0.21052632  0.09090909       0.003
   0.26315789  0.21052632  0.09090909       0.006
   0.31578947  0.21052632  0.09090909       0.006
   0.36842105  0.21052632  0.09090909       0.006
   0.26315789  0.26315789  0.09090909       0.003
   0.31578947  0.26315789  0.09090909       0.006
   0.36842105  0.26315789  0.09090909       0.003
   0.31578947  0.31578947  0.09090909       0.003
   0.00000000  0.00000000  0.18181818       0.001
   0.05263158  0.00000000  0.18181818       0.003
   0.10526316  0.00000000  0.18181818       0.003
   0.15789474  0.00000000  0.18181818       0.003
   0.21052632  0.00000000  0.18181818       0.003
   0.26315789  0.00000000  0.18181818       0.003
   0.31578947  0.00000000  0.18181818       0.003
   0.36842105  0.00000000  0.18181818       0.003
   0.42105263  0.00000000  0.18181818       0.003
   0.47368421  0.00000000  0.18181818       0.003
   0.05263158  0.05263158  0.18181818       0.003
   0.10526316  0.05263158  0.18181818       0.006
   0.15789474  0.05263158  0.18181818       0.006
   0.21052632  0.05263158  0.18181818       0.006
   0.26315789  0.05263158  0.18181818       0.006
   0.31578947  0.05263158  0.18181818       0.006
   0.36842105  0.05263158  0.18181818       0.006
   0.42105263  0.05263158  0.18181818       0.006
   0.47368421  0.05263158  0.18181818       0.003
   0.10526316  0.10526316  0.18181818       0.003
   0.15789474  0.10526316  0.18181818       0.006
   0.21052632  0.10526316  0.18181818       0.006
   0.26315789  0.10526316  0.18181818       0.006
   0.31578947  0.10526316  0.18181818       0.006
   0.36842105  0.10526316  0.18181818       0.006
   0.42105263  0.10526316  0.18181818       0.006
   0.15789474  0.15789474  0.18181818       0.003
   0.21052632  0.15789474  0.18181818       0.006
   0.26315789  0.15789474  0.18181818       0.006
   0.31578947  0.15789474  0.18181818       0.006
   0.36842105  0.15789474  0.18181818       0.006
   0.42105263  0.15789474  0.18181818       0.003
   0.21052632  0.21052632  0.18181818       0.003
   0.26315789  0.21052632  0.18181818       0.006
   0.31578947  0.21052632  0.18181818       0.006
   0.36842105  0.21052632  0.18181818       0.006
   0.26315789  0.26315789  0.18181818       0.003
   0.31578947  0.26315789  0.18181818       0.006
   0.36842105  0.26315789  0.18181818       0.003
   0.31578947  0.31578947  0.18181818       0.003
   0.00000000  0.00000000  0.27272727       0.001
   0.05263158  0.00000000  0.27272727       0.003
   0.10526316  0.00000000  0.27272727       0.003
   0.15789474  0.00000000  0.27272727       0.003
   0.21052632  0.00000000  0.27272727       0.003
   0.26315789  0.00000000  0.27272727       0.003
   0.31578947  0.00000000  0.27272727       0.003
   0.36842105  0.00000000  0.27272727       0.003
   0.42105263  0.00000000  0.27272727       0.003
   0.47368421  0.00000000  0.27272727       0.003
   0.05263158  0.05263158  0.27272727       0.003
   0.10526316  0.05263158  0.27272727       0.006
   0.15789474  0.05263158  0.27272727       0.006
   0.21052632  0.05263158  0.27272727       0.006
   0.26315789  0.05263158  0.27272727       0.006
   0.31578947  0.05263158  0.27272727       0.006
   0.36842105  0.05263158  0.27272727       0.006
   0.42105263  0.05263158  0.27272727       0.006
   0.47368421  0.05263158  0.27272727       0.003
   0.10526316  0.10526316  0.27272727       0.003
   0.15789474  0.10526316  0.27272727       0.006
   0.21052632  0.10526316  0.27272727       0.006
   0.26315789  0.10526316  0.27272727       0.006
   0.31578947  0.10526316  0.27272727       0.006
   0.36842105  0.10526316  0.27272727       0.006
   0.42105263  0.10526316  0.27272727       0.006
   0.15789474  0.15789474  0.27272727       0.003
   0.21052632  0.15789474  0.27272727       0.006
   0.26315789  0.15789474  0.27272727       0.006
   0.31578947  0.15789474  0.27272727       0.006
   0.36842105  0.15789474  0.27272727       0.006
   0.42105263  0.15789474  0.27272727       0.003
   0.21052632  0.21052632  0.27272727       0.003
   0.26315789  0.21052632  0.27272727       0.006
   0.31578947  0.21052632  0.27272727       0.006
   0.36842105  0.21052632  0.27272727       0.006
   0.26315789  0.26315789  0.27272727       0.003
   0.31578947  0.26315789  0.27272727       0.006
   0.36842105  0.26315789  0.27272727       0.003
   0.31578947  0.31578947  0.27272727       0.003
   0.00000000  0.00000000  0.36363636       0.001
   0.05263158  0.00000000  0.36363636       0.003
   0.10526316  0.00000000  0.36363636       0.003
   0.15789474  0.00000000  0.36363636       0.003
   0.21052632  0.00000000  0.36363636       0.003
   0.26315789  0.00000000  0.36363636       0.003
   0.31578947  0.00000000  0.36363636       0.003
   0.36842105  0.00000000  0.36363636       0.003
   0.42105263  0.00000000  0.36363636       0.003
   0.47368421  0.00000000  0.36363636       0.003
   0.05263158  0.05263158  0.36363636       0.003
   0.10526316  0.05263158  0.36363636       0.006
   0.15789474  0.05263158  0.36363636       0.006
   0.21052632  0.05263158  0.36363636       0.006
   0.26315789  0.05263158  0.36363636       0.006
   0.31578947  0.05263158  0.36363636       0.006
   0.36842105  0.05263158  0.36363636       0.006
   0.42105263  0.05263158  0.36363636       0.006
   0.47368421  0.05263158  0.36363636       0.003
   0.10526316  0.10526316  0.36363636       0.003
   0.15789474  0.10526316  0.36363636       0.006
   0.21052632  0.10526316  0.36363636       0.006
   0.26315789  0.10526316  0.36363636       0.006
   0.31578947  0.10526316  0.36363636       0.006
   0.36842105  0.10526316  0.36363636       0.006
   0.42105263  0.10526316  0.36363636       0.006
   0.15789474  0.15789474  0.36363636       0.003
   0.21052632  0.15789474  0.36363636       0.006
   0.26315789  0.15789474  0.36363636       0.006
   0.31578947  0.15789474  0.36363636       0.006
   0.36842105  0.15789474  0.36363636       0.006
   0.42105263  0.15789474  0.36363636       0.003
   0.21052632  0.21052632  0.36363636       0.003
   0.26315789  0.21052632  0.36363636       0.006
   0.31578947  0.21052632  0.36363636       0.006
   0.36842105  0.21052632  0.36363636       0.006
   0.26315789  0.26315789  0.36363636       0.003
   0.31578947  0.26315789  0.36363636       0.006
   0.36842105  0.26315789  0.36363636       0.003
   0.31578947  0.31578947  0.36363636       0.003
   0.00000000  0.00000000  0.45454545       0.001
   0.05263158  0.00000000  0.45454545       0.003
   0.10526316  0.00000000  0.45454545       0.003
   0.15789474  0.00000000  0.45454545       0.003
   0.21052632  0.00000000  0.45454545       0.003
   0.26315789  0.00000000  0.45454545       0.003
   0.31578947  0.00000000  0.45454545       0.003
   0.36842105  0.00000000  0.45454545       0.003
   0.42105263  0.00000000  0.45454545       0.003
   0.47368421  0.00000000  0.45454545       0.003
   0.05263158  0.05263158  0.45454545       0.003
   0.10526316  0.05263158  0.45454545       0.006
   0.15789474  0.05263158  0.45454545       0.006
   0.21052632  0.05263158  0.45454545       0.006
   0.26315789  0.05263158  0.45454545       0.006
   0.31578947  0.05263158  0.45454545       0.006
   0.36842105  0.05263158  0.45454545       0.006
   0.42105263  0.05263158  0.45454545       0.006
   0.47368421  0.05263158  0.45454545       0.003
   0.10526316  0.10526316  0.45454545       0.003
   0.15789474  0.10526316  0.45454545       0.006
   0.21052632  0.10526316  0.45454545       0.006
   0.26315789  0.10526316  0.45454545       0.006
   0.31578947  0.10526316  0.45454545       0.006
   0.36842105  0.10526316  0.45454545       0.006
   0.42105263  0.10526316  0.45454545       0.006
   0.15789474  0.15789474  0.45454545       0.003
   0.21052632  0.15789474  0.45454545       0.006
   0.26315789  0.15789474  0.45454545       0.006
   0.31578947  0.15789474  0.45454545       0.006
   0.36842105  0.15789474  0.45454545       0.006
   0.42105263  0.15789474  0.45454545       0.003
   0.21052632  0.21052632  0.45454545       0.003
   0.26315789  0.21052632  0.45454545       0.006
   0.31578947  0.21052632  0.45454545       0.006
   0.36842105  0.21052632  0.45454545       0.006
   0.26315789  0.26315789  0.45454545       0.003
   0.31578947  0.26315789  0.45454545       0.006
   0.36842105  0.26315789  0.45454545       0.003
   0.31578947  0.31578947  0.45454545       0.003
 
 position of ions in fractional coordinates (direct lattice) 
   0.66666700  0.33333300  0.43700000
   0.33333300  0.66666700  0.93700000
   0.00000000  0.00000000  0.57000000
   0.00000000  0.00000000  0.07000000
   0.66666700  0.33333300  0.81800000
   0.33333300  0.66666700  0.31800000
 
 position of ions in cartesian coordinates  (Angst):
   1.53500000 -0.88623444  2.05827000
   1.53500000  0.88623444  4.41327000
   0.00000000  0.00000000  2.68470000
   0.00000000  0.00000000  0.32970000
   1.53500000 -0.88623444  3.85278000
   1.53500000  0.88623444  1.49778000
 


--------------------------------------------------------------------------------------------------------


 k-point  1 :   0.0000 0.0000 0.0000  plane waves:    1049
 k-point  2 :   0.0526 0.0000 0.0000  plane waves:    1049
 k-point  3 :   0.1053 0.0000 0.0000  plane waves:    1046
 k-point  4 :   0.1579 0.0000 0.0000  plane waves:    1040
 k-point  5 :   0.2105 0.0000 0.0000  plane waves:    1046
 k-point  6 :   0.2632 0.0000 0.0000  plane waves:    1042
 k-point  7 :   0.3158 0.0000 0.0000  plane waves:    1036
 k-point  8 :   0.3684 0.0000 0.0000  plane waves:    1028
 k-point  9 :   0.4211 0.0000 0.0000  plane waves:    1038
 k-point 10 :   0.4737 0.0000 0.0000  plane waves:    1040
 k-point 11 :   0.0526 0.0526 0.0000  plane waves:    1043
 k-point 12 :   0.1053 0.0526 0.0000  plane waves:    1039
 k-point 13 :   0.1579 0.0526 0.0000  plane waves:    1039
 k-point 14 :   0.2105 0.0526 0.0000  plane waves:    1044
 k-point 15 :   0.2632 0.0526 0.0000  plane waves:    1045
 k-point 16 :   0.3158 0.0526 0.0000  plane waves:    1032
 k-point 17 :   0.3684 0.0526 0.0000  plane waves:    1036
 k-point 18 :   0.4211 0.0526 0.0000  plane waves:    1039
 k-point 19 :   0.4737 0.0526 0.0000  plane waves:    1038
 k-point 20 :   0.1053 0.1053 0.0000  plane waves:    1041
 k-point 21 :   0.1579 0.1053 0.0000  plane waves:    1043
 k-point 22 :   0.2105 0.1053 0.0000  plane waves:    1038
 k-point 23 :   0.2632 0.1053 0.0000  plane waves:    1037
 k-point 24 :   0.3158 0.1053 0.0000  plane waves:    1032
 k-point 25 :   0.3684 0.1053 0.0000  plane waves:    1035
 k-point 26 :   0.4211 0.1053 0.0000  plane waves:    1036
 k-point 27 :   0.1579 0.1579 0.0000  plane waves:    1042
 k-point 28 :   0.2105 0.1579 0.0000  plane waves:    1040
 k-point 29 :   0.2632 0.1579 0.0000  plane waves:    1030
 k-point 30 :   0.3158 0.1579 0.0000  plane waves:    1029
 k-point 31 :   0.3684 0.1579 0.0000  plane waves:    1028
 k-point 32 :   0.4211 0.1579 0.0000  plane waves:    1028
 k-point 33 :   0.2105 0.2105 0.0000  plane waves:    1028
 k-point 34 :   0.2632 0.2105 0.0000  plane waves:    1032
 k-point 35 :   0.3158 0.2105 0.0000  plane waves:    1026
 k-point 36 :   0.3684 0.2105 0.0000  plane waves:    1027
 k-point 37 :   0.2632 0.2632 0.0000  plane waves:    1024
 k-point 38 :   0.3158 0.2632 0.0000  plane waves:    1021
 k-point 39 :   0.3684 0.2632 0.0000  plane waves:    1022
 k-point 40 :   0.3158 0.3158 0.0000  plane waves:    1020
 k-point 41 :   0.0000 0.0000 0.0909  plane waves:    1061
 k-point 42 :   0.0526 0.0000 0.0909  plane waves:    1049
 k-point 43 :   0.1053 0.0000 0.0909  plane waves:    1040
 k-point 44 :   0.1579 0.0000 0.0909  plane waves:    1036
 k-point 45 :   0.2105 0.0000 0.0909  plane waves:    1042
 k-point 46 :   0.2632 0.0000 0.0909  plane waves:    1040
 k-point 47 :   0.3158 0.0000 0.0909  plane waves:    1040
 k-point 48 :   0.3684 0.0000 0.0909  plane waves:    1034
 k-point 49 :   0.4211 0.0000 0.0909  plane waves:    1038
 k-point 50 :   0.4737 0.0000 0.0909  plane waves:    1040
 k-point 51 :   0.0526 0.0526 0.0909  plane waves:    1044
 k-point 52 :   0.1053 0.0526 0.0909  plane waves:    1041
 k-point 53 :   0.1579 0.0526 0.0909  plane waves:    1040
 k-point 54 :   0.2105 0.0526 0.0909  plane waves:    1040
 k-point 55 :   0.2632 0.0526 0.0909  plane waves:    1036
 k-point 56 :   0.3158 0.0526 0.0909  plane waves:    1035
 k-point 57 :   0.3684 0.0526 0.0909  plane waves:    1039
 k-point 58 :   0.4211 0.0526 0.0909  plane waves:    1036
 k-point 59 :   0.4737 0.0526 0.0909  plane waves:    1039
 k-point 60 :   0.1053 0.1053 0.0909  plane waves:    1039
 k-point 61 :   0.1579 0.1053 0.0909  plane waves:    1042
 k-point 62 :   0.2105 0.1053 0.0909  plane waves:    1035
 k-point 63 :   0.2632 0.1053 0.0909  plane waves:    1035
 k-point 64 :   0.3158 0.1053 0.0909  plane waves:    1037
 k-point 65 :   0.3684 0.1053 0.0909  plane waves:    1037
 k-point 66 :   0.4211 0.1053 0.0909  plane waves:    1035
 k-point 67 :   0.1579 0.1579 0.0909  plane waves:    1041
 k-point 68 :   0.2105 0.1579 0.0909  plane waves:    1034
 k-point 69 :   0.2632 0.1579 0.0909  plane waves:    1031
 k-point 70 :   0.3158 0.1579 0.0909  plane waves:    1031
 k-point 71 :   0.3684 0.1579 0.0909  plane waves:    1034
 k-point 72 :   0.4211 0.1579 0.0909  plane waves:    1028
 k-point 73 :   0.2105 0.2105 0.0909  plane waves:    1033
 k-point 74 :   0.2632 0.2105 0.0909  plane waves:    1029
 k-point 75 :   0.3158 0.2105 0.0909  plane waves:    1026
 k-point 76 :   0.3684 0.2105 0.0909  plane waves:    1026
 k-point 77 :   0.2632 0.2632 0.0909  plane waves:    1025
 k-point 78 :   0.3158 0.2632 0.0909  plane waves:    1022
 k-point 79 :   0.3684 0.2632 0.0909  plane waves:    1024
 k-point 80 :   0.3158 0.3158 0.0909  plane waves:    1026
 k-point 81 :   0.0000 0.0000 0.1818  plane waves:    1043
 k-point 82 :   0.0526 0.0000 0.1818  plane waves:    1042
 k-point 83 :   0.1053 0.0000 0.1818  plane waves:    1036
 k-point 84 :   0.1579 0.0000 0.1818  plane waves:    1037
 k-point 85 :   0.2105 0.0000 0.1818  plane waves:    1041
 k-point 86 :   0.2632 0.0000 0.1818  plane waves:    1040
 k-point 87 :   0.3158 0.0000 0.1818  plane waves:    1033
 k-point 88 :   0.3684 0.0000 0.1818  plane waves:    1029
 k-point 89 :   0.4211 0.0000 0.1818  plane waves:    1034
 k-point 90 :   0.4737 0.0000 0.1818  plane waves:    1039
 k-point 91 :   0.0526 0.0526 0.1818  plane waves:    1043
 k-point 92 :   0.1053 0.0526 0.1818  plane waves:    1039
 k-point 93 :   0.1579 0.0526 0.1818  plane waves:    1037
 k-point 94 :   0.2105 0.0526 0.1818  plane waves:    1034
 k-point 95 :   0.2632 0.0526 0.1818  plane waves:    1034
 k-point 96 :   0.3158 0.0526 0.1818  plane waves:    1034
 k-point 97 :   0.3684 0.0526 0.1818  plane waves:    1034
 k-point 98 :   0.4211 0.0526 0.1818  plane waves:    1037
 k-point 99 :   0.4737 0.0526 0.1818  plane waves:    1039
 k-point ** :   0.1053 0.1053 0.1818  plane waves:    1037
 k-point ** :   0.1579 0.1053 0.1818  plane waves:    1038
 k-point ** :   0.2105 0.1053 0.1818  plane waves:    1036
 k-point ** :   0.2632 0.1053 0.1818  plane waves:    1035
 k-point ** :   0.3158 0.1053 0.1818  plane waves:    1037
 k-point ** :   0.3684 0.1053 0.1818  plane waves:    1038
 k-point ** :   0.4211 0.1053 0.1818  plane waves:    1035
 k-point ** :   0.1579 0.1579 0.1818  plane waves:    1031
 k-point ** :   0.2105 0.1579 0.1818  plane waves:    1034
 k-point ** :   0.2632 0.1579 0.1818  plane waves:    1031
 k-point ** :   0.3158 0.1579 0.1818  plane waves:    1035
 k-point ** :   0.3684 0.1579 0.1818  plane waves:    1037
 k-point ** :   0.4211 0.1579 0.1818  plane waves:    1038
 k-point ** :   0.2105 0.2105 0.1818  plane waves:    1033
 k-point ** :   0.2632 0.2105 0.1818  plane waves:    1032
 k-point ** :   0.3158 0.2105 0.1818  plane waves:    1033
 k-point ** :   0.3684 0.2105 0.1818  plane waves:    1032
 k-point ** :   0.2632 0.2632 0.1818  plane waves:    1028
 k-point ** :   0.3158 0.2632 0.1818  plane waves:    1026
 k-point ** :   0.3684 0.2632 0.1818  plane waves:    1031
 k-point ** :   0.3158 0.3158 0.1818  plane waves:    1019
 k-point ** :   0.0000 0.0000 0.2727  plane waves:    1032
 k-point ** :   0.0526 0.0000 0.2727  plane waves:    1030
 k-point ** :   0.1053 0.0000 0.2727  plane waves:    1035
 k-point ** :   0.1579 0.0000 0.2727  plane waves:    1035
 k-point ** :   0.2105 0.0000 0.2727  plane waves:    1031
 k-point ** :   0.2632 0.0000 0.2727  plane waves:    1040
 k-point ** :   0.3158 0.0000 0.2727  plane waves:    1032
 k-point ** :   0.3684 0.0000 0.2727  plane waves:    1029
 k-point ** :   0.4211 0.0000 0.2727  plane waves:    1030
 k-point ** :   0.4737 0.0000 0.2727  plane waves:    1034
 k-point ** :   0.0526 0.0526 0.2727  plane waves:    1039
 k-point ** :   0.1053 0.0526 0.2727  plane waves:    1037
 k-point ** :   0.1579 0.0526 0.2727  plane waves:    1035
 k-point ** :   0.2105 0.0526 0.2727  plane waves:    1036
 k-point ** :   0.2632 0.0526 0.2727  plane waves:    1039
 k-point ** :   0.3158 0.0526 0.2727  plane waves:    1033
 k-point ** :   0.3684 0.0526 0.2727  plane waves:    1035
 k-point ** :   0.4211 0.0526 0.2727  plane waves:    1038
 k-point ** :   0.4737 0.0526 0.2727  plane waves:    1041
 k-point ** :   0.1053 0.1053 0.2727  plane waves:    1040
 k-point ** :   0.1579 0.1053 0.2727  plane waves:    1032
 k-point ** :   0.2105 0.1053 0.2727  plane waves:    1034
 k-point ** :   0.2632 0.1053 0.2727  plane waves:    1036
 k-point ** :   0.3158 0.1053 0.2727  plane waves:    1034
 k-point ** :   0.3684 0.1053 0.2727  plane waves:    1040
 k-point ** :   0.4211 0.1053 0.2727  plane waves:    1040
 k-point ** :   0.1579 0.1579 0.2727  plane waves:    1034
 k-point ** :   0.2105 0.1579 0.2727  plane waves:    1038
 k-point ** :   0.2632 0.1579 0.2727  plane waves:    1032
 k-point ** :   0.3158 0.1579 0.2727  plane waves:    1029
 k-point ** :   0.3684 0.1579 0.2727  plane waves:    1040
 k-point ** :   0.4211 0.1579 0.2727  plane waves:    1041
 k-point ** :   0.2105 0.2105 0.2727  plane waves:    1034
 k-point ** :   0.2632 0.2105 0.2727  plane waves:    1029
 k-point ** :   0.3158 0.2105 0.2727  plane waves:    1033
 k-point ** :   0.3684 0.2105 0.2727  plane waves:    1035
 k-point ** :   0.2632 0.2632 0.2727  plane waves:    1034
 k-point ** :   0.3158 0.2632 0.2727  plane waves:    1031
 k-point ** :   0.3684 0.2632 0.2727  plane waves:    1032
 k-point ** :   0.3158 0.3158 0.2727  plane waves:    1020
 k-point ** :   0.0000 0.0000 0.3636  plane waves:    1020
 k-point ** :   0.0526 0.0000 0.3636  plane waves:    1020
 k-point ** :   0.1053 0.0000 0.3636  plane waves:    1033
 k-point ** :   0.1579 0.0000 0.3636  plane waves:    1035
 k-point ** :   0.2105 0.0000 0.3636  plane waves:    1033
 k-point ** :   0.2632 0.0000 0.3636  plane waves:    1034
 k-point ** :   0.3158 0.0000 0.3636  plane waves:    1042
 k-point ** :   0.3684 0.0000 0.3636  plane waves:    1037
 k-point ** :   0.4211 0.0000 0.3636  plane waves:    1037
 k-point ** :   0.4737 0.0000 0.3636  plane waves:    1035
 k-point ** :   0.0526 0.0526 0.3636  plane waves:    1027
 k-point ** :   0.1053 0.0526 0.3636  plane waves:    1034
 k-point ** :   0.1579 0.0526 0.3636  plane waves:    1034
 k-point ** :   0.2105 0.0526 0.3636  plane waves:    1035
 k-point ** :   0.2632 0.0526 0.3636  plane waves:    1039
 k-point ** :   0.3158 0.0526 0.3636  plane waves:    1038
 k-point ** :   0.3684 0.0526 0.3636  plane waves:    1041
 k-point ** :   0.4211 0.0526 0.3636  plane waves:    1044
 k-point ** :   0.4737 0.0526 0.3636  plane waves:    1035
 k-point ** :   0.1053 0.1053 0.3636  plane waves:    1037
 k-point ** :   0.1579 0.1053 0.3636  plane waves:    1031
 k-point ** :   0.2105 0.1053 0.3636  plane waves:    1037
 k-point ** :   0.2632 0.1053 0.3636  plane waves:    1033
 k-point ** :   0.3158 0.1053 0.3636  plane waves:    1035
 k-point ** :   0.3684 0.1053 0.3636  plane waves:    1036
 k-point ** :   0.4211 0.1053 0.3636  plane waves:    1042
 k-point ** :   0.1579 0.1579 0.3636  plane waves:    1035
 k-point ** :   0.2105 0.1579 0.3636  plane waves:    1035
 k-point ** :   0.2632 0.1579 0.3636  plane waves:    1032
 k-point ** :   0.3158 0.1579 0.3636  plane waves:    1032
 k-point ** :   0.3684 0.1579 0.3636  plane waves:    1039
 k-point ** :   0.4211 0.1579 0.3636  plane waves:    1044
 k-point ** :   0.2105 0.2105 0.3636  plane waves:    1032
 k-point ** :   0.2632 0.2105 0.3636  plane waves:    1035
 k-point ** :   0.3158 0.2105 0.3636  plane waves:    1035
 k-point ** :   0.3684 0.2105 0.3636  plane waves:    1037
 k-point ** :   0.2632 0.2632 0.3636  plane waves:    1036
 k-point ** :   0.3158 0.2632 0.3636  plane waves:    1034
 k-point ** :   0.3684 0.2632 0.3636  plane waves:    1032
 k-point ** :   0.3158 0.3158 0.3636  plane waves:    1031
 k-point ** :   0.0000 0.0000 0.4545  plane waves:    1014
 k-point ** :   0.0526 0.0000 0.4545  plane waves:    1016
 k-point ** :   0.1053 0.0000 0.4545  plane waves:    1027
[...]
      6     -23.7920      1.00000
      7     -23.5117      1.00000
      8     -23.4903      1.00000
      9       3.6993      1.00000
     10       3.7487      1.00000
     11       4.9548      1.00000
     12       5.1009      1.00000
     13       8.2824      1.00000
     14       8.3518      1.00000
     15      10.4629      1.00000
     16      10.9721      1.00000
     17      13.3063      0.00000
     18      13.4911      0.00000
     19      15.1765      0.00000
     20      15.2603      0.00000
     21      18.1556      0.00000
     22      18.3458      0.00000
     23      19.3468      0.00000
     24      19.5404      0.00000

 k-point   237 :       0.2632    0.2632    0.4545
  band No.  band energies     occupation 
      1     -49.5444      1.00000
      2     -49.5384      1.00000
      3     -24.1441      1.00000
      4     -24.1331      1.00000
      5     -23.8288      1.00000
      6     -23.7936      1.00000
      7     -23.5148      1.00000
      8     -23.4880      1.00000
      9       3.7778      1.00000
     10       3.8610      1.00000
     11       4.7639      1.00000
     12       4.8988      1.00000
     13       8.4131      1.00000
     14       8.4268      1.00000
     15      10.3027      1.00000
     16      10.8233      1.00000
     17      13.3646      0.00000
     18      13.6666      0.00000
     19      14.9125      0.00000
     20      14.9396      0.00000
     21      18.3683      0.00000
     22      18.4671      0.00000
     23      19.4355      0.00000
     24      19.7798      0.00000

 k-point   238 :       0.3158    0.2632    0.4545
  band No.  band energies     occupation 
      1     -49.5398      1.00000
      2     -49.5361      1.00000
      3     -24.1424      1.00000
      4     -24.1327      1.00000
      5     -23.8703      1.00000
      6     -23.8299      1.00000
      7     -23.5043      1.00000
      8     -23.4869      1.00000
      9       3.9413      1.00000
     10       3.9860      1.00000
     11       4.7254      1.00000
     12       4.8538      1.00000
     13       8.3412      1.00000
     14       8.3597      1.00000
     15      10.3561      1.00000
     16      10.8666      1.00000
     17      13.2674      0.00000
     18      13.4433      0.00000
     19      15.5363      0.00000
     20      15.5743      0.00000
     21      18.0313      0.00000
     22      18.1523      0.00000
     23      19.2018      0.00000
     24      19.4131      0.00000

 k-point   239 :       0.3684    0.2632    0.4545
  band No.  band energies     occupation 
      1     -49.5380      1.00000
      2     -49.5355      1.00000
      3     -24.1415      1.00000
      4     -24.1303      1.00000
      5     -23.8863      1.00000
      6     -23.8434      1.00000
      7     -23.4998      1.00000
      8     -23.4874      1.00000
      9       4.0005      1.00000
     10       4.0231      1.00000
     11       4.7252      1.00000
     12       4.8325      1.00000
     13       8.3109      1.00000
     14       8.3345      1.00000
     15      10.3937      1.00000
     16      10.8980      1.00000
     17      13.2237      0.00000
     18      13.3263      0.00000
     19      15.8372      0.00000
     20      15.8766      0.00000
     21      17.8767      0.00000
     22      17.8833      0.00000
     23      19.1527      0.00000
     24      19.2706      0.00000

 k-point   240 :       0.3158    0.3158    0.4545
  band No.  band energies     occupation 
      1     -49.5367      1.00000
      2     -49.5353      1.00000
      3     -24.1245      1.00000
      4     -24.1210      1.00000
      5     -23.9099      1.00000
      6     -23.8650      1.00000
      7     -23.4945      1.00000
      8     -23.4878      1.00000
      9       4.1871      1.00000
     10       4.2084      1.00000
     11       4.5533      1.00000
     12       4.6567      1.00000
     13       8.3296      1.00000
     14       8.3296      1.00000
     15      10.3699      1.00000
     16      10.8728      1.00000
     17      13.1872      0.00000
     18      13.2504      0.00000
     19      16.1984      0.00000
     20      16.2329      0.00000
     21      17.5199      0.00000
     22      17.6550      0.00000
     23      19.1215      0.00000
     24      19.1906      0.00000


--------------------------------------------------------------------------------------------------------


 soft charge-density along one line, spin component           1
         0         1         2         3         4         5         6         7         8         9
 total charge-density along one line
 
 soft charge-density along one line, spin component           2
         0         1         2         3         4         5         6         7         8         9
 total charge-density along one line
 
 pseudopotential strength for first ion, spin component:           1
 -5.488  10.193   0.000   0.000   0.000  -0.000   0.005  -0.000
 10.193   3.334  -0.000   0.003  -0.000   0.000  -0.003   0.000
  0.000  -0.000 -16.763  -0.000   0.000   7.453   0.000  -0.000
  0.000   0.003  -0.000 -16.767   0.000   0.000   7.455  -0.000
  0.000  -0.000   0.000   0.000 -16.763  -0.000  -0.000   7.453
 -0.000   0.000   7.453   0.000  -0.000   6.589  -0.000   0.000
  0.005  -0.003   0.000   7.455  -0.000  -0.000   6.587   0.000
 -0.000   0.000  -0.000  -0.000   7.453   0.000   0.000   6.589
  0.000  -0.000   0.000  -0.000   0.003  -0.000   0.000  -0.001
 -0.000   0.000  -0.001   0.000  -0.000   0.002  -0.000   0.000
 -0.002  -0.000  -0.000  -0.004  -0.000   0.000   0.005   0.000
  0.000  -0.000  -0.000   0.000  -0.001   0.000  -0.000   0.002
 -0.000   0.000   0.003  -0.000  -0.000  -0.001   0.000   0.000
  0.000  -0.000   0.000  -0.000   0.003  -0.000   0.000  -0.001
 -0.000   0.000  -0.001   0.000  -0.000   0.002  -0.000   0.000
 -0.002  -0.000  -0.000  -0.004  -0.000   0.000   0.005   0.000
  0.000  -0.000  -0.000   0.000  -0.001   0.000  -0.000   0.002
 -0.000   0.000   0.003  -0.000  -0.000  -0.001   0.000   0.000
 pseudopotential strength for first ion, spin component:           2
 -5.488  10.193   0.000   0.000   0.000  -0.000   0.005  -0.000
 10.193   3.334  -0.000   0.003  -0.000   0.000  -0.003   0.000
  0.000  -0.000 -16.763  -0.000   0.000   7.453   0.000  -0.000
  0.000   0.003  -0.000 -16.767   0.000   0.000   7.455  -0.000
  0.000  -0.000   0.000   0.000 -16.763  -0.000  -0.000   7.453
 -0.000   0.000   7.453   0.000  -0.000   6.589  -0.000   0.000
  0.005  -0.003   0.000   7.455  -0.000  -0.000   6.587   0.000
 -0.000   0.000  -0.000  -0.000   7.453   0.000   0.000   6.589
  0.000  -0.000   0.000  -0.000   0.003  -0.000   0.000  -0.001
 -0.000   0.000  -0.001   0.000  -0.000   0.002  -0.000   0.000
 -0.002  -0.000  -0.000  -0.004  -0.000   0.000   0.005   0.000
  0.000  -0.000  -0.000   0.000  -0.001   0.000  -0.000   0.002
 -0.000   0.000   0.003  -0.000  -0.000  -0.001   0.000   0.000
  0.000  -0.000   0.000  -0.000   0.003  -0.000   0.000  -0.001
 -0.000   0.000  -0.001   0.000  -0.000   0.002  -0.000   0.000
 -0.002  -0.000  -0.000  -0.004  -0.000   0.000   0.005   0.000
  0.000  -0.000  -0.000   0.000  -0.001   0.000  -0.000   0.002
 -0.000   0.000   0.003  -0.000  -0.000  -0.001   0.000   0.000
 total augmentation occupancy for first ion, spin component:           1
  1.997  -0.032   0.000  -0.000   0.000   0.000  -0.001   0.000  -0.000  -0.000   0.003   0.000   0.000   0.000  -0.000  -0.002
 -0.032   1.131   0.000  -0.006   0.000   0.000   0.022  -0.000   0.000   0.000   0.178   0.000   0.000   0.000   0.000  -0.118
  0.000   0.000   2.000   0.000   0.000  -0.036  -0.000   0.000   0.000  -0.007   0.000   0.000   0.003  -0.000   0.002  -0.000
 -0.000  -0.006  -0.000   2.000   0.000  -0.000  -0.037   0.000   0.000   0.000  -0.000   0.000  -0.000   0.000   0.000  -0.002
  0.000  -0.000   0.000   0.000   2.000   0.000   0.000  -0.036   0.003  -0.000   0.000  -0.007   0.000  -0.000   0.000   0.000
  0.000   0.000  -0.036   0.000   0.000   0.105   0.000   0.000   0.000   0.001   0.000  -0.000   0.026   0.000   0.017  -0.000
 -0.001   0.022  -0.000  -0.037  -0.000  -0.000   0.109   0.000   0.000   0.000  -0.208  -0.000  -0.000   0.000   0.000   0.203
  0.000   0.000   0.000   0.000  -0.036   0.000   0.000   0.105   0.026  -0.000   0.000   0.001   0.000  -0.034   0.000   0.000
 -0.000   0.000   0.000   0.000   0.003   0.000   0.000   0.026   4.182   0.000   0.000   1.773   0.000  -4.802   0.000   0.000
  0.000  -0.000  -0.007   0.000  -0.000   0.001  -0.000  -0.000   0.000   2.752   0.000   0.000   1.773   0.000  -3.107  -0.000
  0.003   0.178   0.000  -0.000   0.000   0.000  -0.208   0.000   0.000   0.000   4.555   0.000   0.000   0.000  -0.000  -5.390
  0.000   0.000  -0.000   0.000  -0.007   0.000   0.000   0.001   1.773   0.000   0.000   2.752   0.000  -2.030   0.000   0.000
  0.000   0.000   0.003  -0.000   0.000   0.026  -0.000   0.000   0.000   1.773   0.000   0.000   4.182   0.000  -2.028  -0.000
  0.000   0.000  -0.000   0.000  -0.000   0.000  -0.000  -0.034  -4.802   0.000  -0.000  -2.030   0.000   6.167   0.000   0.000
 -0.000  -0.000   0.002  -0.000  -0.000   0.017   0.000  -0.000   0.000  -3.107  -0.000   0.000  -2.028   0.000   4.371   0.000
 -0.002  -0.118  -0.000  -0.002   0.000  -0.000   0.203   0.000   0.000  -0.000  -5.390   0.000  -0.000  -0.000   0.000   6.791
  0.000  -0.000   0.000   0.000   0.002   0.000   0.000   0.017  -2.028   0.000  -0.000  -3.107   0.000   2.148   0.000   0.000
 -0.000  -0.000  -0.000  -0.000  -0.000  -0.034   0.000   0.000   0.000  -2.030  -0.000   0.000  -4.802   0.000   2.148   0.000
 total augmentation occupancy for first ion, spin component:           2
  0.000  -0.000   0.000  -0.000   0.000   0.000  -0.000   0.000   0.000   0.000  -0.000   0.000  -0.000   0.000   0.000   0.000
 -0.000   0.000   0.000  -0.000   0.000   0.000  -0.000   0.000   0.000   0.000  -0.000   0.000  -0.000   0.000  -0.000   0.000
 -0.000   0.000  -0.000   0.000   0.000  -0.000  -0.000   0.000  -0.000   0.000  -0.000   0.000  -0.000   0.000  -0.000   0.000
 -0.000  -0.000   0.000  -0.000   0.000   0.000  -0.000   0.000  -0.000   0.000  -0.000   0.000  -0.000  -0.000   0.000  -0.000
  0.000   0.000   0.000   0.000  -0.000   0.000   0.000  -0.000  -0.000   0.000   0.000   0.000   0.000   0.000   0.000   0.000
 -0.000   0.000  -0.000   0.000   0.000   0.000   0.000   0.000   0.000   0.000  -0.000   0.000  -0.000   0.000  -0.000   0.000
 -0.000  -0.000   0.000  -0.000   0.000   0.000   0.000   0.000   0.000   0.000   0.000   0.000   0.000  -0.000  -0.000  -0.000
  0.000   0.000   0.000   0.000  -0.000   0.000   0.000   0.000  -0.000  -0.000   0.000   0.000   0.000   0.000   0.000   0.000
  0.000   0.000  -0.000   0.000  -0.000  -0.000   0.000  -0.000   0.000   0.000   0.000  -0.001  -0.000   0.000   0.000   0.000
  0.000   0.000   0.000   0.000   0.000   0.000   0.000   0.000   0.000   0.000  -0.000   0.000  -0.001   0.000  -0.000   0.000
 -0.000  -0.000  -0.000  -0.000   0.000  -0.000   0.000   0.000   0.000  -0.000   0.000   0.000   0.000   0.000   0.000   0.000
 -0.000   0.000   0.000   0.000   0.000   0.000  -0.000   0.000  -0.001   0.000   0.000   0.000   0.000   0.001   0.000   0.000
 -0.000  -0.000  -0.000  -0.000  -0.000  -0.000   0.000   0.000  -0.000  -0.001   0.000   0.000   0.000   0.000   0.001   0.000
 -0.000   0.000   0.000  -0.000   0.000  -0.000  -0.000   0.000   0.000   0.000   0.000   0.001   0.000  -0.000   0.000  -0.000
 -0.000   0.000  -0.000   0.000   0.000  -0.000   0.000   0.000   0.000  -0.000   0.000   0.000   0.001   0.000   0.001  -0.000
  0.000   0.000   0.000  -0.000   0.000   0.000  -0.000   0.000   0.000   0.000   0.000  -0.000   0.000  -0.000  -0.000   0.000
  0.000   0.000   0.000   0.000  -0.000   0.000   0.000  -0.000   0.001   0.000   0.000  -0.000   0.000  -0.001   0.000   0.000
  0.000   0.000   0.000  -0.000   0.000   0.000  -0.000  -0.000   0.000   0.001   0.000   0.000   0.000   0.000  -0.001  -0.000


------------------------ aborting loop because EDIFF is reached ----------------------------------------


 


 total charge     
 
# of ion     s       p       d       tot
----------------------------------------
  1        2.278   6.214   4.131  12.623
  2        2.272   6.218   4.123  12.613
  3        0.546   0.035   0.000   0.581
  4        0.548   0.035   0.000   0.584
  5        0.600   0.044   0.000   0.643
  6        0.600   0.044   0.000   0.644
------------------------------------------------
tot        6.844  12.589   8.254  27.687
 


 magnetization (x)
 
# of ion     s       p       d       tot
----------------------------------------
  1        0.000   0.000   0.001   0.001
  2        0.000   0.000   0.001   0.001
  3       -0.000   0.000   0.000  -0.000
  4       -0.000   0.000   0.000  -0.000
  5       -0.000   0.000   0.000   0.000
  6       -0.000   0.000   0.000   0.000
------------------------------------------------
tot       -0.000   0.000   0.002   0.002
 
    CHARGE:  cpu time    0.4999: real time    0.5044
    FORLOC:  cpu time    0.0130: real time    0.0181
    FORNL :  cpu time    1.4148: real time    1.4215
    STRESS:  cpu time    1.4068: real time    1.4165
    FORCOR:  cpu time    0.0810: real time    0.0837
    FORHAR:  cpu time    0.0800: real time    0.0845
    MIXING:  cpu time    0.3030: real time    0.3063
    OFIELD:  cpu time    0.0010: real time    0.0051

  FORCE on cell =-STRESS in cart. coord.  units (eV):
  Direction    XX          YY          ZZ          XY          YZ          ZX
  --------------------------------------------------------------------------------------
  Alpha Z   227.24903   227.24903   227.24903
  Ewald   -1084.39734 -1084.39889 -1080.85808     0.00000    -0.00000    -0.00000
  Hartree   193.09886   193.09873   203.02738    -0.00000     0.00001    -0.00000
  E(xc)    -148.18111  -148.18110  -148.28533    -0.00000    -0.00000    -0.00000
  Local     263.48885   263.49009   245.77317     0.00000    -0.00002     0.00000
  n-local   -70.53568   -62.32293   -64.58274     2.65288    -0.16919     0.51561
  augment    68.93525    68.93529    68.28700    -0.00000     0.00000     0.00000
  Kinetic   537.23490   566.38491   554.77751     8.85595     0.33871    -1.85578
  Fock        0.00000     0.00000     0.00000     0.00000     0.00000     0.00000
  -------------------------------------------------------------------------------------
  Total       5.57395     5.57395     5.38793     0.00000     0.00000     0.00000
  in kB     232.29786   232.29786   224.54561     0.00000     0.00000     0.00000
  external pressure =      229.71 kB  Pullay stress =        0.00 kB


 VOLUME and BASIS-vectors are now :
 -----------------------------------------------------------------------------
  energy-cutoff  :      520.00
  volume of cell :       38.44
      direct lattice vectors                 reciprocal lattice vectors
     1.535000000 -2.658698000  0.000000000     0.325732899 -0.188061976  0.000000000
     1.535000000  2.658698000  0.000000000     0.325732899  0.188061976  0.000000000
     0.000000000  0.000000000  4.710000000     0.000000000  0.000000000  0.212314225

  length of vectors
     3.070000009  3.070000009  4.710000000     0.376123954  0.376123954  0.212314225


 FORCES acting on ions
    electron-ion (+dipol)            ewald-force                    non-local-force                 convergence-correction
 -----------------------------------------------------------------------------------------------
   -.273E-08 0.458E-02 0.198E+02   -.143E-13 0.522E-03 -.189E+02   -.278E-16 0.971E-16 -.845E+00   0.113E-11 0.355E-05 -.111E-01
   -.272E-08 -.173E-02 0.198E+02   0.486E-14 -.522E-03 -.189E+02   -.139E-16 -.833E-16 -.845E+00   0.133E-11 -.150E-05 -.111E-01
   0.335E-08 0.628E-04 -.126E+02   0.443E-14 -.826E-04 0.136E+02   -.222E-17 -.379E-17 -.996E+00   -.433E-12 -.288E-07 -.283E-03
   0.335E-08 -.931E-04 -.126E+02   -.376E-14 0.826E-04 0.136E+02   -.260E-17 0.867E-18 -.996E+00   -.471E-12 -.190E-07 -.283E-03
   -.126E-08 -.384E-04 -.493E+01   -.260E-14 0.218E-03 0.533E+01   0.000E+00 0.520E-17 -.389E+00   -.323E-12 0.298E-07 0.506E-04
   -.126E-08 0.394E-04 -.494E+01   -.116E-14 -.218E-03 0.533E+01   0.000E+00 -.520E-17 -.389E+00   -.349E-12 -.578E-07 0.505E-04
 -----------------------------------------------------------------------------------------------
   -.126E-08 0.282E-02 0.448E+01   -.125E-13 0.430E-14 -.888E-15   -.465E-16 0.110E-16 -.446E+01   0.880E-12 0.197E-05 -.226E-01
 
 
 POSITION                                       TOTAL-FORCE (eV/Angst)
 -----------------------------------------------------------------------------------
      1.53500     -0.88623      2.05827         0.000000     -0.000000      0.050131
      1.53500      0.88623      4.41327         0.000000      0.000000      0.050131
      0.00000      0.00000      2.68470         0.000000     -0.000000     -0.057832
      0.00000      0.00000      0.32970        -0.000000     -0.000000     -0.057832
      1.53500     -0.88623      3.85278         0.000000     -0.000000      0.007701
      1.53500      0.88623      1.49778         0.000000     -0.000000      0.007701
 -----------------------------------------------------------------------------------
    total drift:                               -0.000000      0.002826      0.000393


--------------------------------------------------------------------------------------------------------



  FREE ENERGIE OF THE ION-ELECTRON SYSTEM (eV)
  ---------------------------------------------------
  free  energy   TOTEN  =       -29.05052091 eV

  energy  without entropy=      -29.04870281  energy(sigma->0) =      -29.04961186
 


--------------------------------------------------------------------------------------------------------


    POTLOK:  cpu time    0.3200: real time    0.3243


--------------------------------------------------------------------------------------------------------


     LOOP+:  cpu time  219.8806: real time  222.2447
    4ORBIT:  cpu time    0.0000: real time    0.0000
 


 total charge     
 
# of ion     s       p       d       tot
----------------------------------------
  1        2.278   6.214   4.131  12.623
  2        2.272   6.218   4.123  12.613
  3        0.546   0.035   0.000   0.581
  4        0.548   0.035   0.000   0.584
  5        0.600   0.044   0.000   0.643
  6        0.600   0.044   0.000   0.644
------------------------------------------------
tot        6.844  12.589   8.254  27.687
 


 magnetization (x)
 
# of ion     s       p       d       tot
----------------------------------------
  1        0.000   0.000   0.001   0.001
  2        0.000   0.000   0.001   0.001
  3       -0.000   0.000   0.000  -0.000
  4       -0.000   0.000   0.000  -0.000
  5       -0.000   0.000   0.000   0.000
  6       -0.000   0.000   0.000   0.000
------------------------------------------------
tot       -0.000   0.000   0.002   0.002
 

 total amount of memory used by VASP on root node    39488. kBytes
========================================================================

   base      :      30000. kBytes
   nonl-proj :       6091. kBytes
   fftplans  :        364. kBytes
   grid      :        422. kBytes
   one-center:         31. kBytes
   wavefun   :       2580. kBytes
 
  
  
 General timing and accounting informations for this job:
 ========================================================
  
                  Total CPU time used (sec):      276.160
                            User time (sec):      265.477
                          System time (sec):       10.683
                         Elapsed time (sec):      280.289
  
                   Maximum memory used (kb):      203792.
                   Average memory used (kb):           0.
  
                          Minor page faults:       109118
                          Major page faults:          407
                 Voluntary context switches:        29075
