 vasp.5.4.1 24Jun15 (build Nov 23 2015 09:58:10) complex                        
  
 executed on             LinuxIFC date 2022.10.25  14:26:06
 running on   48 total cores
 distrk:  each k-point on   48 cores,    1 groups
 distr:  one band on NCORES_PER_BAND=   8 cores,    6 groups


--------------------------------------------------------------------------------------------------------


 INCAR:
 POTCAR:    PAW_PBE O 08Apr2002                   
 POTCAR:    PAW_PBE Zn 06Sep2000                  
 POTCAR:    PAW_PBE O 08Apr2002                   
   VRHFIN =O: s2p4                                                              
   LEXCH  = PE                                                                  
   EATOM  =   432.3788 eV,   31.7789 Ry                                         
                                                                                
   TITEL  = PAW_PBE O 08Apr2002                                                 
   LULTRA =        F    use ultrasoft PP ?                                      
   IUNSCR =        1    unscreen: 0-lin 1-nonlin 2-no                           
   RPACOR =    1.200    partial core radius                                     
   POMASS =   16.000; ZVAL   =    6.000    mass and valenz                      
   RCORE  =    1.520    outmost cutoff radius                                   
   RWIGS  =    1.550; RWIGS  =    0.820    wigner-seitz radius (au A)           
   ENMAX  =  400.000; ENMIN  =  300.000 eV                                      
   ICORE  =        2    local potential                                         
   LCOR   =        T    correct aug charges                                     
   LPAW   =        T    paw PP                                                  
   EAUG   =  605.392                                                            
   DEXC   =    0.000                                                            
   RMAX   =    1.553    core radius for proj-oper                               
   RAUG   =    1.300    factor for augmentation sphere                          
   RDEP   =    1.550    radius for radial grids                                 
   RDEPT  =    1.329    core radius for aug-charge                              
                                                                                
   Atomic configuration                                                         
    4 entries                                                                   
     n  l   j            E        occ.                                          
     1  0  0.50      -514.6923   2.0000                                         
     2  0  0.50       -23.9615   2.0000                                         
     2  1  0.50        -9.0305   4.0000                                         
     3  2  1.50        -9.5241   0.0000                                         
   Description                                                                  
     l       E           TYP  RCUT    TYP  RCUT                                 
     0    -23.9615318     23  1.200                                             
     0     -9.5240782     23  1.200                                             
     1     -9.0304911     23  1.520                                             
     1      8.1634956     23  1.520                                             
     2     -9.5240782      7  1.500                                             
  local pseudopotential read in
  partial core-charges read in
  partial kinetic energy density read in
  kinetic energy density of atom read in
  atomic valenz-charges read in
  non local Contribution for L=           0  read in
    real space projection operators read in
  non local Contribution for L=           0  read in
    real space projection operators read in
  non local Contribution for L=           1  read in
    real space projection operators read in
  non local Contribution for L=           1  read in
    real space projection operators read in
    PAW grid and wavefunctions read in
 
   number of l-projection  operators is LMAX  =           4
   number of lm-projection operators is LMMAX =           8
 
 POTCAR:    PAW_PBE Zn 06Sep2000                  
   VRHFIN =Zn: d10 p2                                                           
   LEXCH  = PE                                                                  
   EATOM  =  1748.8345 eV,  128.5357 Ry                                         
                                                                                
   TITEL  = PAW_PBE Zn 06Sep2000                                                
   LULTRA =        F    use ultrasoft PP ?                                      
   IUNSCR =        1    unscreen: 0-lin 1-nonlin 2-no                           
   RPACOR =    2.000    partial core radius                                     
   POMASS =   65.390; ZVAL   =   12.000    mass and valenz                      
   RCORE  =    2.300    outmost cutoff radius                                   
   RWIGS  =    2.400; RWIGS  =    1.270    wigner-seitz radius (au A)           
   ENMAX  =  276.723; ENMIN  =  207.542 eV                                      
   RCLOC  =    1.828    cutoff for local pot                                    
   LCOR   =        T    correct aug charges                                     
   LPAW   =        T    paw PP                                                  
   EAUG   =  575.892                                                            
   DEXC   =    0.000                                                            
   RMAX   =    2.347    core radius for proj-oper                               
   RAUG   =    1.300    factor for augmentation sphere                          
   RDEP   =    2.324    radius for radial grids                                 
   RDEPT  =    1.788    core radius for aug-charge                              
                                                                                
   Atomic configuration                                                         
    9 entries                                                                   
     n  l   j            E        occ.                                          
     1  0  0.50     -9524.6913   2.0000                                         
     2  0  0.50     -1158.1882   2.0000                                         
     2  1  1.50     -1003.8506   6.0000                                         
     3  0  0.50      -129.2194   2.0000                                         
     3  1  1.50       -83.3890   6.0000                                         
     3  2  2.50       -10.1410  10.0000                                         
     4  0  0.50        -5.9785   2.0000                                         
     4  1  0.50        -4.0817   0.0000                                         
     4  3  2.50        -1.3606   0.0000                                         
   Description                                                                  
     l       E           TYP  RCUT    TYP  RCUT                                 
     2    -10.1410010     23  2.300                                             
     2    -11.5015836     23  2.300                                             
     0     -5.9785163     23  2.300                                             
     0      1.1858015     23  2.300                                             
     1     -2.7211652     23  2.300                                             
     1     13.2444212     23  2.300                                             
  local pseudopotential read in
  partial core-charges read in
  partial kinetic energy density read in
  atomic valenz-charges read in
  non local Contribution for L=           2  read in
    real space projection operators read in
  non local Contribution for L=           2  read in
    real space projection operators read in
  non local Contribution for L=           0  read in
    real space projection operators read in
  non local Contribution for L=           0  read in
    real space projection operators read in
  non local Contribution for L=           1  read in
    real space projection operators read in
  non local Contribution for L=           1  read in
    real space projection operators read in
    PAW grid and wavefunctions read in
 
   number of l-projection  operators is LMAX  =           6
   number of lm-projection operators is LMMAX =          18
 
  PAW_PBE O 08Apr2002                   :
 energy of atom  1       EATOM= -432.3788
 kinetic energy error for atom=    0.0208 (will be added to EATOM!!)
  PAW_PBE Zn 06Sep2000                  :
 energy of atom  2       EATOM=-1748.8345
 kinetic energy error for atom=    0.0029 (will be added to EATOM!!)
 
 
 POSCAR: Primitive Cell                          
  positions in direct lattice
  No initial velocities read in
 exchange correlation table for  LEXCH =        8
   RHO(1)=    0.500       N(1)  =     2000
   RHO(2)=  100.500       N(2)  =     4000
 


--------------------------------------------------------------------------------------------------------


 ion  position               nearest neighbor table
   1  0.750  0.750  0.750-   2 1.94   2 1.94   2 1.94   2 1.94
   2  0.000  0.000  0.000-   1 1.94   1 1.94   1 1.94   1 1.94
 
  LATTYP: Found a face centered cubic cell.
 ALAT       =     4.4828280020
  
  Lattice vectors:
  
 A1 = (   0.0000000000,   2.2414140010,   2.2414140010)
 A2 = (   2.2414140010,   0.0000000000,   2.2414140010)
 A3 = (   2.2414140010,   2.2414140010,   0.0000000000)


Analysis of symmetry for initial positions (statically):
=====================================================================
 Subroutine PRICEL returns:
 Original cell was already a primitive cell.
 

 Routine SETGRP: Setting up the symmetry group for a 
 face centered cubic supercell.


 Subroutine GETGRP returns: Found 24 space group operations
 (whereof 24 operations were pure point group operations)
 out of a pool of 48 trial point group operations.


The static configuration has the point symmetry T_d .


Analysis of symmetry for dynamics (positions and initial velocities):
=====================================================================
 Subroutine PRICEL returns:
 Original cell was already a primitive cell.
 

 Routine SETGRP: Setting up the symmetry group for a 
 face centered cubic supercell.


 Subroutine GETGRP returns: Found 24 space group operations
 (whereof 24 operations were pure point group operations)
 out of a pool of 48 trial point group operations.


The dynamic configuration has the point symmetry T_d .
 
 
 KPOINTS: 0.030  13  13  13   84  0.040  155    6 
  k-points in reciprocal lattice
Space group operators:
 irot       det(A)        alpha          n_x          n_y          n_z        tau_x        tau_y        tau_z
    1     1.000000     0.000000     1.000000     0.000000     0.000000     0.000000     0.000000     0.000000
    2     1.000000   120.000000    -0.577350    -0.577350    -0.577350     0.000000     0.000000     0.000000
    3     1.000000   120.000000     0.577350     0.577350     0.577350     0.000000     0.000000     0.000000
    4    -1.000000    90.000000     0.000000     0.000000    -1.000000     0.000000     0.000000     0.000000
    5    -1.000000   180.000000     0.000000     0.707107     0.707107     0.000000     0.000000     0.000000
    6    -1.000000    90.000000     0.000000     1.000000     0.000000     0.000000     0.000000     0.000000
    7     1.000000   180.000000     0.000000     0.000000     1.000000     0.000000     0.000000     0.000000
    8     1.000000   120.000000    -0.577350     0.577350     0.577350     0.000000     0.000000     0.000000
    9     1.000000   120.000000    -0.577350     0.577350    -0.577350     0.000000     0.000000     0.000000
   10    -1.000000    90.000000     0.000000     0.000000     1.000000     0.000000     0.000000     0.000000
   11    -1.000000    90.000000    -1.000000     0.000000     0.000000     0.000000     0.000000     0.000000
   12    -1.000000   180.000000     0.707107     0.000000     0.707107     0.000000     0.000000     0.000000
   13     1.000000   120.000000     0.577350    -0.577350     0.577350     0.000000     0.000000     0.000000
   14     1.000000   120.000000    -0.577350    -0.577350     0.577350     0.000000     0.000000     0.000000
   15     1.000000   180.000000     1.000000     0.000000     0.000000     0.000000     0.000000     0.000000
   16    -1.000000    90.000000     0.000000    -1.000000     0.000000     0.000000     0.000000     0.000000
   17    -1.000000   180.000000     0.707107     0.707107     0.000000     0.000000     0.000000     0.000000
   18    -1.000000    90.000000     1.000000     0.000000     0.000000     0.000000     0.000000     0.000000
   19     1.000000   120.000000     0.577350    -0.577350    -0.577350     0.000000     0.000000     0.000000
   20     1.000000   180.000000     0.000000     1.000000     0.000000     0.000000     0.000000     0.000000
   21     1.000000   120.000000     0.577350     0.577350    -0.577350     0.000000     0.000000     0.000000
   22    -1.000000   180.000000     0.000000    -0.707107     0.707107     0.000000     0.000000     0.000000
   23    -1.000000   180.000000     0.707107    -0.707107     0.000000     0.000000     0.000000     0.000000
   24    -1.000000   180.000000     0.707107     0.000000    -0.707107     0.000000     0.000000     0.000000

 ----------------------------------------------------------------------------- 
|                                                                             |
|           W    W    AA    RRRRR   N    N  II  N    N   GGGG   !!!           |
|           W    W   A  A   R    R  NN   N  II  NN   N  G    G  !!!           |
|           W    W  A    A  R    R  N N  N  II  N N  N  G       !!!           |
|           W WW W  AAAAAA  RRRRR   N  N N  II  N  N N  G  GGG   !            |
|           WW  WW  A    A  R   R   N   NN  II  N   NN  G    G                |
|           W    W  A    A  R    R  N    N  II  N    N   GGGG   !!!           |
|                                                                             |
|      Your generating k-point grid is not commensurate to the symmetry       |
|      of the lattice.  This can cause   slow convergence with respect        |
|      to k-points for HF type calculations                                   |
|      suggested SOLUTIONS:                                                   |
|       ) if not already the case, use automatic k-point generation           |
|       ) shift your grid to Gamma (G) (e.g. required for hex or fcc lattice) |
|                                                                             |
 ----------------------------------------------------------------------------- 

 
 Subroutine IBZKPT_HF returns following result:
 ==============================================
 
 Found   2352 k-points in 1st BZ
 the following   2352 k-points will be used (e.g. in the exchange kernel)
 Following reciprocal coordinates:   # in IRBZ
  0.000000  0.000000  0.000000    0.00045517   1 t-inv F
  0.076923  0.000000  0.000000    0.00045517   2 t-inv F
  0.153846  0.000000  0.000000    0.00045517   3 t-inv F
  0.230769  0.000000  0.000000    0.00045517   4 t-inv F
  0.307692  0.000000  0.000000    0.00045517   5 t-inv F
  0.384615  0.000000  0.000000    0.00045517   6 t-inv F
  0.461538  0.000000  0.000000    0.00045517   7 t-inv F
  0.076923  0.076923  0.000000    0.00045517   8 t-inv F
  0.153846  0.076923  0.000000    0.00045517   9 t-inv F
  0.230769  0.076923  0.000000    0.00045517  10 t-inv F
  0.307692  0.076923  0.000000    0.00045517  11 t-inv F
  0.384615  0.076923  0.000000    0.00045517  12 t-inv F
  0.461538  0.076923  0.000000    0.00045517  13 t-inv F
 -0.461538  0.076923  0.000000    0.00045517  14 t-inv F
 -0.384615  0.076923  0.000000    0.00045517  15 t-inv F
 -0.307692  0.076923  0.000000    0.00045517  16 t-inv F
 -0.230769  0.076923  0.000000    0.00045517  17 t-inv F
 -0.153846  0.076923  0.000000    0.00045517  18 t-inv F
 -0.076923  0.076923  0.000000    0.00045517  19 t-inv F
  0.153846  0.153846  0.000000    0.00045517  20 t-inv F
  0.230769  0.153846  0.000000    0.00045517  21 t-inv F
  0.307692  0.153846  0.000000    0.00045517  22 t-inv F
  0.384615  0.153846  0.000000    0.00045517  23 t-inv F
  0.461538  0.153846  0.000000    0.00045517  24 t-inv F
 -0.461538  0.153846  0.000000    0.00045517  25 t-inv F
 -0.384615  0.153846  0.000000    0.00045517  26 t-inv F
 -0.307692  0.153846  0.000000    0.00045517  27 t-inv F
 -0.230769  0.153846  0.000000    0.00045517  28 t-inv F
 -0.153846  0.153846  0.000000    0.00045517  29 t-inv F
  0.230769  0.230769  0.000000    0.00045517  30 t-inv F
  0.307692  0.230769  0.000000    0.00045517  31 t-inv F
  0.384615  0.230769  0.000000    0.00045517  32 t-inv F
  0.461538  0.230769  0.000000    0.00045517  33 t-inv F
 -0.461538  0.230769  0.000000    0.00045517  34 t-inv F
 -0.384615  0.230769  0.000000    0.00045517  35 t-inv F
 -0.307692  0.230769  0.000000    0.00045517  36 t-inv F
 -0.230769  0.230769  0.000000    0.00045517  37 t-inv F
  0.307692  0.307692  0.000000    0.00045517  38 t-inv F
  0.384615  0.307692  0.000000    0.00045517  39 t-inv F
  0.461538  0.307692  0.000000    0.00045517  40 t-inv F
 -0.461538  0.307692  0.000000    0.00045517  41 t-inv F
 -0.384615  0.307692  0.000000    0.00045517  42 t-inv F
 -0.307692  0.307692  0.000000    0.00045517  43 t-inv F
  0.384615  0.384615  0.000000    0.00045517  44 t-inv F
  0.461538  0.384615  0.000000    0.00045517  45 t-inv F
 -0.461538  0.384615  0.000000    0.00045517  46 t-inv F
 -0.384615  0.384615  0.000000    0.00045517  47 t-inv F
  0.461538  0.461538  0.000000    0.00045517  48 t-inv F
 -0.461538  0.461538  0.000000    0.00045517  49 t-inv F
  0.230769  0.153846  0.076923    0.00045517  50 t-inv F
  0.307692  0.153846  0.076923    0.00045517  51 t-inv F
  0.384615  0.153846  0.076923    0.00045517  52 t-inv F
  0.461538  0.153846  0.076923    0.00045517  53 t-inv F
 -0.461538  0.153846  0.076923    0.00045517  54 t-inv F
  0.307692  0.230769  0.076923    0.00045517  55 t-inv F
  0.384615  0.230769  0.076923    0.00045517  56 t-inv F
  0.461538  0.230769  0.076923    0.00045517  57 t-inv F
 -0.461538  0.230769  0.076923    0.00045517  58 t-inv F
 -0.384615  0.230769  0.076923    0.00045517  59 t-inv F
 -0.307692  0.230769  0.076923    0.00045517  60 t-inv F
 -0.230769  0.230769  0.076923    0.00045517  61 t-inv F
 -0.153846  0.230769  0.076923    0.00045517  62 t-inv F
  0.384615  0.307692  0.076923    0.00045517  63 t-inv F
  0.461538  0.307692  0.076923    0.00045517  64 t-inv F
 -0.461538  0.307692  0.076923    0.00045517  65 t-inv F
 -0.384615  0.307692  0.076923    0.00045517  66 t-inv F
 -0.307692  0.307692  0.076923    0.00045517  67 t-inv F
 -0.230769  0.307692  0.076923    0.00045517  68 t-inv F
  0.461538  0.384615  0.076923    0.00045517  69 t-inv F
 -0.461538  0.384615  0.076923    0.00045517  70 t-inv F
 -0.384615  0.384615  0.076923    0.00045517  71 t-inv F
 -0.307692  0.384615  0.076923    0.00045517  72 t-inv F
 -0.461538  0.461538  0.076923    0.00045517  73 t-inv F
 -0.384615  0.461538  0.076923    0.00045517  74 t-inv F
  0.461538  0.307692  0.153846    0.00045517  75 t-inv F
 -0.461538  0.307692  0.153846    0.00045517  76 t-inv F
 -0.384615  0.307692  0.153846    0.00045517  77 t-inv F
 -0.461538  0.384615  0.153846    0.00045517  78 t-inv F
 -0.384615  0.384615  0.153846    0.00045517  79 t-inv F
 -0.307692  0.384615  0.153846    0.00045517  80 t-inv F
 -0.230769  0.384615  0.153846    0.00045517  81 t-inv F
 -0.384615  0.461538  0.153846    0.00045517  82 t-inv F
 -0.307692  0.461538  0.153846    0.00045517  83 t-inv F
 -0.307692  0.461538  0.230769    0.00045517  84 t-inv F
  0.000000  0.000000  0.000000    0.00000000  85 t-inv F
  0.014706  0.000000  0.014706    0.00000000  86 t-inv F
  0.029412  0.000000  0.029412    0.00000000  87 t-inv F
  0.044118  0.000000  0.044118    0.00000000  88 t-inv F
  0.058824  0.000000  0.058824    0.00000000  89 t-inv F
  0.073529  0.000000  0.073529    0.00000000  90 t-inv F
  0.088235  0.000000  0.088235    0.00000000  91 t-inv F
  0.102941  0.000000  0.102941    0.00000000  92 t-inv F
  0.117647  0.000000  0.117647    0.00000000  93 t-inv F
  0.132353  0.000000  0.132353    0.00000000  94 t-inv F
  0.147059  0.000000  0.147059    0.00000000  95 t-inv F
  0.161765  0.000000  0.161765    0.00000000  96 t-inv F
  0.176471  0.000000  0.176471    0.00000000  97 t-inv F
  0.191176  0.000000  0.191176    0.00000000  98 t-inv F
  0.205882  0.000000  0.205882    0.00000000  99 t-inv F
  0.220588  0.000000  0.220588    0.00000000 100 t-inv F
  0.235294  0.000000  0.235294    0.00000000 101 t-inv F
  0.250000  0.000000  0.250000    0.00000000 102 t-inv F
  0.264706  0.000000  0.264706    0.00000000 103 t-inv F
  0.279412  0.000000  0.279412    0.00000000 104 t-inv F
  0.294118  0.000000  0.294118    0.00000000 105 t-inv F
  0.308824  0.000000  0.308824    0.00000000 106 t-inv F
  0.323529  0.000000  0.323529    0.00000000 107 t-inv F
  0.338235  0.000000  0.338235    0.00000000 108 t-inv F
  0.352941  0.000000  0.352941    0.00000000 109 t-inv F
  0.367647  0.000000  0.367647    0.00000000 110 t-inv F
  0.382353  0.000000  0.382353    0.00000000 111 t-inv F
  0.397059  0.000000  0.397059    0.00000000 112 t-inv F
  0.411765  0.000000  0.411765    0.00000000 113 t-inv F
  0.426471  0.000000  0.426471    0.00000000 114 t-inv F
  0.441176  0.000000  0.441176    0.00000000 115 t-inv F
  0.455882  0.000000  0.455882    0.00000000 116 t-inv F
  0.470588  0.000000  0.470588    0.00000000 117 t-inv F
  0.485294  0.000000  0.485294    0.00000000 118 t-inv F
  0.500000  0.000000  0.500000    0.00000000 119 t-inv F
  0.500000  0.000000  0.500000    0.00000000 120 t-inv F
  0.511364  0.022727  0.511364    0.00000000 121 t-inv F
  0.522727  0.045455  0.522727    0.00000000 122 t-inv F
  0.534091  0.068182  0.534091    0.00000000 123 t-inv F
  0.545455  0.090909  0.545455    0.00000000 124 t-inv F
  0.556818  0.113636  0.556818    0.00000000 125 t-inv F
  0.568182  0.136364  0.568182    0.00000000 126 t-inv F
  0.579545  0.159091  0.579545    0.00000000 127 t-inv F
  0.590909  0.181818  0.590909    0.00000000 128 t-inv F
  0.602273  0.204545  0.602273    0.00000000 129 t-inv F
  0.613636  0.227273  0.613636    0.00000000 130 t-inv F
  0.625000  0.250000  0.625000    0.00000000 131 t-inv F
  0.375000  0.375000  0.750000    0.00000000 132 t-inv F
  0.364583  0.364583  0.729167    0.00000000 133 t-inv F
  0.354167  0.354167  0.708333    0.00000000 134 t-inv F
  0.343750  0.343750  0.687500    0.00000000 135 t-inv F
  0.333333  0.333333  0.666667    0.00000000 136 t-inv F
  0.322917  0.322917  0.645833    0.00000000 137 t-inv F
  0.312500  0.312500  0.625000    0.00000000 138 t-inv F
  0.302083  0.302083  0.604167    0.00000000 139 t-inv F
  0.291667  0.291667  0.583333    0.00000000 140 t-inv F
  0.281250  0.281250  0.562500    0.00000000 141 t-inv F
  0.270833  0.270833  0.541667    0.00000000 142 t-inv F
  0.260417  0.260417  0.520833    0.00000000 143 t-inv F
  0.250000  0.250000  0.500000    0.00000000 144 t-inv F
  0.239583  0.239583  0.479167    0.00000000 145 t-inv F
  0.229167  0.229167  0.458333    0.00000000 146 t-inv F
  0.218750  0.218750  0.437500    0.00000000 147 t-inv F
  0.208333  0.208333  0.416667    0.00000000 148 t-inv F
  0.197917  0.197917  0.395833    0.00000000 149 t-inv F
  0.187500  0.187500  0.375000    0.00000000 150 t-inv F
  0.177083  0.177083  0.354167    0.00000000 151 t-inv F
  0.166667  0.166667  0.333333    0.00000000 152 t-inv F
  0.156250  0.156250  0.312500    0.00000000 153 t-inv F
  0.145833  0.145833  0.291667    0.00000000 154 t-inv F
  0.135417  0.135417  0.270833    0.00000000 155 t-inv F
  0.125000  0.125000  0.250000    0.00000000 156 t-inv F
  0.114583  0.114583  0.229167    0.00000000 157 t-inv F
  0.104167  0.104167  0.208333    0.00000000 158 t-inv F
  0.093750  0.093750  0.187500    0.00000000 159 t-inv F
  0.083333  0.083333  0.166667    0.00000000 160 t-inv F
  0.072917  0.072917  0.145833    0.00000000 161 t-inv F
  0.062500  0.062500  0.125000    0.00000000 162 t-inv F
  0.052083  0.052083  0.104167    0.00000000 163 t-inv F
  0.041667  0.041667  0.083333    0.00000000 164 t-inv F
  0.031250  0.031250  0.062500    0.00000000 165 t-inv F
  0.020833  0.020833  0.041667    0.00000000 166 t-inv F
  0.010417  0.010417  0.020833    0.00000000 167 t-inv F
  0.000000  0.000000  0.000000    0.00000000 168 t-inv F
  0.000000  0.000000  0.000000    0.00000000 169 t-inv F
  0.017241  0.017241  0.017241    0.00000000 170 t-inv F
  0.034483  0.034483  0.034483    0.00000000 171 t-inv F
  0.051724  0.051724  0.051724    0.00000000 172 t-inv F
  0.068966  0.068966  0.068966    0.00000000 173 t-inv F
  0.086207  0.086207  0.086207    0.00000000 174 t-inv F
  0.103448  0.103448  0.103448    0.00000000 175 t-inv F
  0.120690  0.120690  0.120690    0.00000000 176 t-inv F
  0.137931  0.137931  0.137931    0.00000000 177 t-inv F
  0.155172  0.155172  0.155172    0.00000000 178 t-inv F
  0.172414  0.172414  0.172414    0.00000000 179 t-inv F
  0.189655  0.189655  0.189655    0.00000000 180 t-inv F
  0.206897  0.206897  0.206897    0.00000000 181 t-inv F
  0.224138  0.224138  0.224138    0.00000000 182 t-inv F
  0.241379  0.241379  0.241379    0.00000000 183 t-inv F
  0.258621  0.258621  0.258621    0.00000000 184 t-inv F
  0.275862  0.275862  0.275862    0.00000000 185 t-inv F
  0.293103  0.293103  0.293103    0.00000000 186 t-inv F
  0.310345  0.310345  0.310345    0.00000000 187 t-inv F
  0.327586  0.327586  0.327586    0.00000000 188 t-inv F
  0.344828  0.344828  0.344828    0.00000000 189 t-inv F
  0.362069  0.362069  0.362069    0.00000000 190 t-inv F
  0.379310  0.379310  0.379310    0.00000000 191 t-inv F
  0.396552  0.396552  0.396552    0.00000000 192 t-inv F
  0.413793  0.413793  0.413793    0.00000000 193 t-inv F
  0.431034  0.431034  0.431034    0.00000000 194 t-inv F
  0.448276  0.448276  0.448276    0.00000000 195 t-inv F
  0.465517  0.465517  0.465517    0.00000000 196 t-inv F
  0.482759  0.482759  0.482759    0.00000000 197 t-inv F
  0.500000  0.500000  0.500000    0.00000000 198 t-inv F
  0.500000  0.500000  0.500000    0.00000000 199 t-inv F
  0.500000  0.489130  0.510870    0.00000000 200 t-inv F
  0.500000  0.478261  0.521739    0.00000000 201 t-inv F
  0.500000  0.467391  0.532609    0.00000000 202 t-inv F
  0.500000  0.456522  0.543478    0.00000000 203 t-inv F
  0.500000  0.445652  0.554348    0.00000000 204 t-inv F
  0.500000  0.434783  0.565217    0.00000000 205 t-inv F
  0.500000  0.423913  0.576087    0.00000000 206 t-inv F
  0.500000  0.413043  0.586957    0.00000000 207 t-inv F
  0.500000  0.402174  0.597826    0.00000000 208 t-inv F
  0.500000  0.391304  0.608696    0.00000000 209 t-inv F
  0.500000  0.380435  0.619565    0.00000000 210 t-inv F
  0.500000  0.369565  0.630435    0.00000000 211 t-inv F
  0.500000  0.358696  0.641304    0.00000000 212 t-inv F
  0.500000  0.347826  0.652174    0.00000000 213 t-inv F
  0.500000  0.336957  0.663043    0.00000000 214 t-inv F
  0.500000  0.326087  0.673913    0.00000000 215 t-inv F
  0.500000  0.315217  0.684783    0.00000000 216 t-inv F
  0.500000  0.304348  0.695652    0.00000000 217 t-inv F
  0.500000  0.293478  0.706522    0.00000000 218 t-inv F
  0.500000  0.282609  0.717391    0.00000000 219 t-inv F
  0.500000  0.271739  0.728261    0.00000000 220 t-inv F
  0.500000  0.260870  0.739130    0.00000000 221 t-inv F
  0.500000  0.250000  0.750000    0.00000000 222 t-inv F
  0.500000  0.250000  0.750000    0.00000000 223 t-inv F
  0.500000  0.234375  0.734375    0.00000000 224 t-inv F
  0.500000  0.218750  0.718750    0.00000000 225 t-inv F
  0.500000  0.203125  0.703125    0.00000000 226 t-inv F
  0.500000  0.187500  0.687500    0.00000000 227 t-inv F
  0.500000  0.171875  0.671875    0.00000000 228 t-inv F
  0.500000  0.156250  0.656250    0.00000000 229 t-inv F
  0.500000  0.140625  0.640625    0.00000000 230 t-inv F
  0.500000  0.125000  0.625000    0.00000000 231 t-inv F
  0.500000  0.109375  0.609375    0.00000000 232 t-inv F
  0.500000  0.093750  0.593750    0.00000000 233 t-inv F
  0.500000  0.078125  0.578125    0.00000000 234 t-inv F
  0.500000  0.062500  0.562500    0.00000000 235 t-inv F
  0.500000  0.046875  0.546875    0.00000000 236 t-inv F
  0.500000  0.031250  0.531250    0.00000000 237 t-inv F
  0.500000  0.015625  0.515625    0.00000000 238 t-inv F
  0.500000  0.000000  0.500000    0.00000000 239 t-inv F
  0.000000  0.076923  0.000000    0.00045517   2 t-inv F
  0.000000  0.000000  0.076923    0.00045517   2 t-inv F
 -0.076923 -0.076923 -0.076923    0.00045517   2 t-inv F
  0.000000  0.153846  0.000000    0.00045517   3 t-inv F
  0.000000  0.000000  0.153846    0.00045517   3 t-inv F
 -0.153846 -0.153846 -0.153846    0.00045517   3 t-inv F
  0.000000  0.230769  0.000000    0.00045517   4 t-inv F
  0.000000  0.000000  0.230769    0.00045517   4 t-inv F
 -0.230769 -0.230769 -0.230769    0.00045517   4 t-inv F
  0.000000  0.307692  0.000000    0.00045517   5 t-inv F
  0.000000  0.000000  0.307692    0.00045517   5 t-inv F
 -0.307692 -0.307692 -0.307692    0.00045517   5 t-inv F
  0.000000  0.384615  0.000000    0.00045517   6 t-inv F
  0.000000  0.000000  0.384615    0.00045517   6 t-inv F
 -0.384615 -0.384615 -0.384615    0.00045517   6 t-inv F
  0.000000  0.461538  0.000000    0.00045517   7 t-inv F
  0.000000  0.000000  0.461538    0.00045517   7 t-inv F
 -0.461538 -0.461538 -0.461538    0.00045517   7 t-inv F
  0.000000  0.076923  0.076923    0.00045517   8 t-inv F
  0.076923  0.000000  0.076923    0.00045517   8 t-inv F
 -0.076923 -0.076923  0.000000    0.00045517   8 t-inv F
 -0.076923  0.000000 -0.076923    0.00045517   8 t-inv F
  0.000000 -0.076923 -0.076923    0.00045517   8 t-inv F
  0.000000  0.153846  0.076923    0.00045517   9 t-inv F
  0.076923  0.000000  0.153846    0.00045517   9 t-inv F
 -0.076923 -0.076923  0.076923    0.00045517   9 t-inv F
 -0.153846 -0.076923 -0.153846    0.00045517   9 t-inv F
  0.076923  0.153846  0.000000    0.00045517   9 t-inv F
  0.076923 -0.076923 -0.076923    0.00045517   9 t-inv F
 -0.153846 -0.153846 -0.076923    0.00045517   9 t-inv F
  0.000000  0.076923  0.153846    0.00045517   9 t-inv F
 -0.076923  0.076923 -0.076923    0.00045517   9 t-inv F
 -0.076923 -0.153846 -0.153846    0.00045517   9 t-inv F
  0.153846  0.000000  0.076923    0.00045517   9 t-inv F
  0.000000  0.230769  0.076923    0.00045517  10 t-inv F
  0.076923  0.000000  0.230769    0.00045517  10 t-inv F
 -0.076923 -0.076923  0.153846    0.00045517  10 t-inv F
 -0.230769 -0.153846 -0.230769    0.00045517  10 t-inv F
  0.076923  0.230769  0.000000    0.00045517  10 t-inv F
  0.153846 -0.076923 -0.076923    0.00045517  10 t-inv F
 -0.230769 -0.230769 -0.153846    0.00045517  10 t-inv F
  0.000000  0.076923  0.230769    0.00045517  10 t-inv F
 -0.076923  0.153846 -0.076923    0.00045517  10 t-inv F
 -0.153846 -0.230769 -0.230769    0.00045517  10 t-inv F
  0.230769  0.000000  0.076923    0.00045517  10 t-inv F
  0.000000  0.307692  0.076923    0.00045517  11 t-inv F
  0.076923  0.000000  0.307692    0.00045517  11 t-inv F
 -0.076923 -0.076923  0.230769    0.00045517  11 t-inv F
 -0.307692 -0.230769 -0.307692    0.00045517  11 t-inv F
  0.076923  0.307692  0.000000    0.00045517  11 t-inv F
  0.230769 -0.076923 -0.076923    0.00045517  11 t-inv F
 -0.307692 -0.307692 -0.230769    0.00045517  11 t-inv F
  0.000000  0.076923  0.307692    0.00045517  11 t-inv F
 -0.076923  0.230769 -0.076923    0.00045517  11 t-inv F
 -0.230769 -0.307692 -0.307692    0.00045517  11 t-inv F
  0.307692  0.000000  0.076923    0.00045517  11 t-inv F
  0.000000  0.384615  0.076923    0.00045517  12 t-inv F
  0.076923  0.000000  0.384615    0.00045517  12 t-inv F
 -0.076923 -0.076923  0.307692    0.00045517  12 t-inv F
 -0.384615 -0.307692 -0.384615    0.00045517  12 t-inv F
  0.076923  0.384615  0.000000    0.00045517  12 t-inv F
  0.307692 -0.076923 -0.076923    0.00045517  12 t-inv F
 -0.384615 -0.384615 -0.307692    0.00045517  12 t-inv F
  0.000000  0.076923  0.384615    0.00045517  12 t-inv F
 -0.076923  0.307692 -0.076923    0.00045517  12 t-inv F
 -0.307692 -0.384615 -0.384615    0.00045517  12 t-inv F
  0.384615  0.000000  0.076923    0.00045517  12 t-inv F
  0.000000  0.461538  0.076923    0.00045517  13 t-inv F
  0.076923  0.000000  0.461538    0.00045517  13 t-inv F
 -0.076923 -0.076923  0.384615    0.00045517  13 t-inv F
 -0.461538 -0.384615 -0.461538    0.00045517  13 t-inv F
  0.076923  0.461538  0.000000    0.00045517  13 t-inv F
  0.384615 -0.076923 -0.076923    0.00045517  13 t-inv F
 -0.461538 -0.461538 -0.384615    0.00045517  13 t-inv F
  0.000000  0.076923  0.461538    0.00045517  13 t-inv F
 -0.076923  0.384615 -0.076923    0.00045517  13 t-inv F
 -0.384615 -0.461538 -0.461538    0.00045517  13 t-inv F
  0.461538  0.000000  0.076923    0.00045517  13 t-inv F
  0.000000 -0.461538  0.076923    0.00045517  14 t-inv F
  0.076923  0.000000 -0.461538    0.00045517  14 t-inv F
 -0.076923 -0.076923 -0.538462    0.00045517  14 t-inv F
  0.461538  0.538462  0.461538    0.00045517  14 t-inv F
  0.076923 -0.461538  0.000000    0.00045517  14 t-inv F
 -0.538462 -0.076923 -0.076923    0.00045517  14 t-inv F
  0.461538  0.461538  0.538462    0.00045517  14 t-inv F
  0.000000  0.076923 -0.461538    0.00045517  14 t-inv F
 -0.076923 -0.538462 -0.076923    0.00045517  14 t-inv F
  0.538462  0.461538  0.461538    0.00045517  14 t-inv F
 -0.461538  0.000000  0.076923    0.00045517  14 t-inv F
  0.000000 -0.384615  0.076923    0.00045517  15 t-inv F
  0.076923  0.000000 -0.384615    0.00045517  15 t-inv F
 -0.076923 -0.076923 -0.461538    0.00045517  15 t-inv F
  0.384615  0.461538  0.384615    0.00045517  15 t-inv F
  0.076923 -0.384615  0.000000    0.00045517  15 t-inv F
 -0.461538 -0.076923 -0.076923    0.00045517  15 t-inv F
  0.384615  0.384615  0.461538    0.00045517  15 t-inv F
  0.000000  0.076923 -0.384615    0.00045517  15 t-inv F
 -0.076923 -0.461538 -0.076923    0.00045517  15 t-inv F
  0.461538  0.384615  0.384615    0.00045517  15 t-inv F
 -0.384615  0.000000  0.076923    0.00045517  15 t-inv F
  0.000000 -0.307692  0.076923    0.00045517  16 t-inv F
  0.076923  0.000000 -0.307692    0.00045517  16 t-inv F
 -0.076923 -0.076923 -0.384615    0.00045517  16 t-inv F
  0.307692  0.384615  0.307692    0.00045517  16 t-inv F
  0.076923 -0.307692  0.000000    0.00045517  16 t-inv F
 -0.384615 -0.076923 -0.076923    0.00045517  16 t-inv F
  0.307692  0.307692  0.384615    0.00045517  16 t-inv F
  0.000000  0.076923 -0.307692    0.00045517  16 t-inv F
 -0.076923 -0.384615 -0.076923    0.00045517  16 t-inv F
  0.384615  0.307692  0.307692    0.00045517  16 t-inv F
 -0.307692  0.000000  0.076923    0.00045517  16 t-inv F
  0.000000 -0.230769  0.076923    0.00045517  17 t-inv F
  0.076923  0.000000 -0.230769    0.00045517  17 t-inv F
 -0.076923 -0.076923 -0.307692    0.00045517  17 t-inv F
  0.230769  0.307692  0.230769    0.00045517  17 t-inv F
  0.076923 -0.230769  0.000000    0.00045517  17 t-inv F
 -0.307692 -0.076923 -0.076923    0.00045517  17 t-inv F
  0.230769  0.230769  0.307692    0.00045517  17 t-inv F
  0.000000  0.076923 -0.230769    0.00045517  17 t-inv F
 -0.076923 -0.307692 -0.076923    0.00045517  17 t-inv F
  0.307692  0.230769  0.230769    0.00045517  17 t-inv F
 -0.230769  0.000000  0.076923    0.00045517  17 t-inv F
  0.000000 -0.153846  0.076923    0.00045517  18 t-inv F
  0.076923  0.000000 -0.153846    0.00045517  18 t-inv F
 -0.076923 -0.076923 -0.230769    0.00045517  18 t-inv F
  0.153846  0.230769  0.153846    0.00045517  18 t-inv F
  0.076923 -0.153846  0.000000    0.00045517  18 t-inv F
 -0.230769 -0.076923 -0.076923    0.00045517  18 t-inv F
  0.153846  0.153846  0.230769    0.00045517  18 t-inv F
  0.000000  0.076923 -0.153846    0.00045517  18 t-inv F
 -0.076923 -0.230769 -0.076923    0.00045517  18 t-inv F
  0.230769  0.153846  0.153846    0.00045517  18 t-inv F
 -0.153846  0.000000  0.076923    0.00045517  18 t-inv F
  0.000000 -0.076923  0.076923    0.00045517  19 t-inv F
  0.076923  0.000000 -0.076923    0.00045517  19 t-inv F
 -0.076923 -0.076923 -0.153846    0.00045517  19 t-inv F
  0.076923  0.153846  0.076923    0.00045517  19 t-inv F
  0.076923 -0.076923  0.000000    0.00045517  19 t-inv F
 -0.153846 -0.076923 -0.076923    0.00045517  19 t-inv F
  0.076923  0.076923  0.153846    0.00045517  19 t-inv F
  0.000000  0.076923 -0.076923    0.00045517  19 t-inv F
 -0.076923 -0.153846 -0.076923    0.00045517  19 t-inv F
  0.153846  0.076923  0.076923    0.00045517  19 t-inv F
 -0.076923  0.000000  0.076923    0.00045517  19 t-inv F
  0.000000  0.153846  0.153846    0.00045517  20 t-inv F
  0.153846  0.000000  0.153846    0.00045517  20 t-inv F
 -0.153846 -0.153846  0.000000    0.00045517  20 t-inv F
 -0.153846  0.000000 -0.153846    0.00045517  20 t-inv F
  0.000000 -0.153846 -0.153846    0.00045517  20 t-inv F
  0.000000  0.230769  0.153846    0.00045517  21 t-inv F
  0.153846  0.000000  0.230769    0.00045517  21 t-inv F
 -0.153846 -0.153846  0.076923    0.00045517  21 t-inv F
 -0.230769 -0.076923 -0.230769    0.00045517  21 t-inv F
  0.153846  0.230769  0.000000    0.00045517  21 t-inv F
  0.076923 -0.153846 -0.153846    0.00045517  21 t-inv F
 -0.230769 -0.230769 -0.076923    0.00045517  21 t-inv F
  0.000000  0.153846  0.230769    0.00045517  21 t-inv F
 -0.153846  0.076923 -0.153846    0.00045517  21 t-inv F
 -0.076923 -0.230769 -0.230769    0.00045517  21 t-inv F
  0.230769  0.000000  0.153846    0.00045517  21 t-inv F
  0.000000  0.307692  0.153846    0.00045517  22 t-inv F
  0.153846  0.000000  0.307692    0.00045517  22 t-inv F
 -0.153846 -0.153846  0.153846    0.00045517  22 t-inv F
 -0.307692 -0.153846 -0.307692    0.00045517  22 t-inv F
  0.153846  0.307692  0.000000    0.00045517  22 t-inv F
  0.153846 -0.153846 -0.153846    0.00045517  22 t-inv F
 -0.307692 -0.307692 -0.153846    0.00045517  22 t-inv F
  0.000000  0.153846  0.307692    0.00045517  22 t-inv F
 -0.153846  0.153846 -0.153846    0.00045517  22 t-inv F
 -0.153846 -0.307692 -0.307692    0.00045517  22 t-inv F
  0.307692  0.000000  0.153846    0.00045517  22 t-inv F
  0.000000  0.384615  0.153846    0.00045517  23 t-inv F
  0.153846  0.000000  0.384615    0.00045517  23 t-inv F
 -0.153846 -0.153846  0.230769    0.00045517  23 t-inv F
 -0.384615 -0.230769 -0.384615    0.00045517  23 t-inv F
  0.153846  0.384615  0.000000    0.00045517  23 t-inv F
  0.230769 -0.153846 -0.153846    0.00045517  23 t-inv F
 -0.384615 -0.384615 -0.230769    0.00045517  23 t-inv F
  0.000000  0.153846  0.384615    0.00045517  23 t-inv F
 -0.153846  0.230769 -0.153846    0.00045517  23 t-inv F
 -0.230769 -0.384615 -0.384615    0.00045517  23 t-inv F
  0.384615  0.000000  0.153846    0.00045517  23 t-inv F
  0.000000  0.461538  0.153846    0.00045517  24 t-inv F
  0.153846  0.000000  0.461538    0.00045517  24 t-inv F
 -0.153846 -0.153846  0.307692    0.00045517  24 t-inv F
 -0.461538 -0.307692 -0.461538    0.00045517  24 t-inv F
  0.153846  0.461538  0.000000    0.00045517  24 t-inv F
  0.307692 -0.153846 -0.153846    0.00045517  24 t-inv F
 -0.461538 -0.461538 -0.307692    0.00045517  24 t-inv F
  0.000000  0.153846  0.461538    0.00045517  24 t-inv F
 -0.153846  0.307692 -0.153846    0.00045517  24 t-inv F
 -0.307692 -0.461538 -0.461538    0.00045517  24 t-inv F
  0.461538  0.000000  0.153846    0.00045517  24 t-inv F
  0.000000 -0.461538  0.153846    0.00045517  25 t-inv F
  0.153846  0.000000 -0.461538    0.00045517  25 t-inv F
 -0.153846 -0.153846 -0.615385    0.00045517  25 t-inv F
  0.461538  0.615385  0.461538    0.00045517  25 t-inv F
  0.153846 -0.461538  0.000000    0.00045517  25 t-inv F
 -0.615385 -0.153846 -0.153846    0.00045517  25 t-inv F
  0.461538  0.461538  0.615385    0.00045517  25 t-inv F
  0.000000  0.153846 -0.461538    0.00045517  25 t-inv F
 -0.153846 -0.615385 -0.153846    0.00045517  25 t-inv F
  0.615385  0.461538  0.461538    0.00045517  25 t-inv F
 -0.461538  0.000000  0.153846    0.00045517  25 t-inv F
  0.000000 -0.384615  0.153846    0.00045517  26 t-inv F
  0.153846  0.000000 -0.384615    0.00045517  26 t-inv F
 -0.153846 -0.153846 -0.538462    0.00045517  26 t-inv F
  0.384615  0.538462  0.384615    0.00045517  26 t-inv F
  0.153846 -0.384615  0.000000    0.00045517  26 t-inv F
 -0.538462 -0.153846 -0.153846    0.00045517  26 t-inv F
  0.384615  0.384615  0.538462    0.00045517  26 t-inv F
  0.000000  0.153846 -0.384615    0.00045517  26 t-inv F
 -0.153846 -0.538462 -0.153846    0.00045517  26 t-inv F
  0.538462  0.384615  0.384615    0.00045517  26 t-inv F
 -0.384615  0.000000  0.153846    0.00045517  26 t-inv F
  0.000000 -0.307692  0.153846    0.00045517  27 t-inv F
  0.153846  0.000000 -0.307692    0.00045517  27 t-inv F
 -0.153846 -0.153846 -0.461538    0.00045517  27 t-inv F
  0.307692  0.461538  0.307692    0.00045517  27 t-inv F
  0.153846 -0.307692  0.000000    0.00045517  27 t-inv F
 -0.461538 -0.153846 -0.153846    0.00045517  27 t-inv F
  0.307692  0.307692  0.461538    0.00045517  27 t-inv F
  0.000000  0.153846 -0.307692    0.00045517  27 t-inv F
 -0.153846 -0.461538 -0.153846    0.00045517  27 t-inv F
  0.461538  0.307692  0.307692    0.00045517  27 t-inv F
 -0.307692  0.000000  0.153846    0.00045517  27 t-inv F
  0.000000 -0.230769  0.153846    0.00045517  28 t-inv F
  0.153846  0.000000 -0.230769    0.00045517  28 t-inv F
 -0.153846 -0.153846 -0.384615    0.00045517  28 t-inv F
  0.230769  0.384615  0.230769    0.00045517  28 t-inv F
  0.153846 -0.230769  0.000000    0.00045517  28 t-inv F
 -0.384615 -0.153846 -0.153846    0.00045517  28 t-inv F
  0.230769  0.230769  0.384615    0.00045517  28 t-inv F
  0.000000  0.153846 -0.230769    0.00045517  28 t-inv F
 -0.153846 -0.384615 -0.153846    0.00045517  28 t-inv F
  0.384615  0.230769  0.230769    0.00045517  28 t-inv F
 -0.230769  0.000000  0.153846    0.00045517  28 t-inv F
  0.000000 -0.153846  0.153846    0.00045517  29 t-inv F
  0.153846  0.000000 -0.153846    0.00045517  29 t-inv F
 -0.153846 -0.153846 -0.307692    0.00045517  29 t-inv F
  0.153846  0.307692  0.153846    0.00045517  29 t-inv F
  0.153846 -0.153846  0.000000    0.00045517  29 t-inv F
 -0.307692 -0.153846 -0.153846    0.00045517  29 t-inv F
  0.153846  0.153846  0.307692    0.00045517  29 t-inv F
  0.000000  0.153846 -0.153846    0.00045517  29 t-inv F
 -0.153846 -0.307692 -0.153846    0.00045517  29 t-inv F
  0.307692  0.153846  0.153846    0.00045517  29 t-inv F
 -0.153846  0.000000  0.153846    0.00045517  29 t-inv F
  0.000000  0.230769  0.230769    0.00045517  30 t-inv F
  0.230769  0.000000  0.230769    0.00045517  30 t-inv F
 -0.230769 -0.230769  0.000000    0.00045517  30 t-inv F
 -0.230769  0.000000 -0.230769    0.00045517  30 t-inv F
  0.000000 -0.230769 -0.230769    0.00045517  30 t-inv F
  0.000000  0.307692  0.230769    0.00045517  31 t-inv F
  0.230769  0.000000  0.307692    0.00045517  31 t-inv F
 -0.230769 -0.230769  0.076923    0.00045517  31 t-inv F
 -0.307692 -0.076923 -0.307692    0.00045517  31 t-inv F
  0.230769  0.307692  0.000000    0.00045517  31 t-inv F
  0.076923 -0.230769 -0.230769    0.00045517  31 t-inv F
 -0.307692 -0.307692 -0.076923    0.00045517  31 t-inv F
  0.000000  0.230769  0.307692    0.00045517  31 t-inv F
 -0.230769  0.076923 -0.230769    0.00045517  31 t-inv F
 -0.076923 -0.307692 -0.307692    0.00045517  31 t-inv F
  0.307692  0.000000  0.230769    0.00045517  31 t-inv F
  0.000000  0.384615  0.230769    0.00045517  32 t-inv F
  0.230769  0.000000  0.384615    0.00045517  32 t-inv F
 -0.230769 -0.230769  0.153846    0.00045517  32 t-inv F
 -0.384615 -0.153846 -0.384615    0.00045517  32 t-inv F
  0.230769  0.384615  0.000000    0.00045517  32 t-inv F
  0.153846 -0.230769 -0.230769    0.00045517  32 t-inv F
 -0.384615 -0.384615 -0.153846    0.00045517  32 t-inv F
  0.000000  0.230769  0.384615    0.00045517  32 t-inv F
 -0.230769  0.153846 -0.230769    0.00045517  32 t-inv F
 -0.153846 -0.384615 -0.384615    0.00045517  32 t-inv F
  0.384615  0.000000  0.230769    0.00045517  32 t-inv F
  0.000000  0.461538  0.230769    0.00045517  33 t-inv F
  0.230769  0.000000  0.461538    0.00045517  33 t-inv F
 -0.230769 -0.230769  0.230769    0.00045517  33 t-inv F
 -0.461538 -0.230769 -0.461538    0.00045517  33 t-inv F
  0.230769  0.461538  0.000000    0.00045517  33 t-inv F
  0.230769 -0.230769 -0.230769    0.00045517  33 t-inv F
 -0.461538 -0.461538 -0.230769    0.00045517  33 t-inv F
  0.000000  0.230769  0.461538    0.00045517  33 t-inv F
 -0.230769  0.230769 -0.230769    0.00045517  33 t-inv F
 -0.230769 -0.461538 -0.461538    0.00045517  33 t-inv F
  0.461538  0.000000  0.230769    0.00045517  33 t-inv F
  0.000000 -0.461538  0.230769    0.00045517  34 t-inv F
  0.230769  0.000000 -0.461538    0.00045517  34 t-inv F
 -0.230769 -0.230769 -0.692308    0.00045517  34 t-inv F
  0.461538  0.692308  0.461538    0.00045517  34 t-inv F
  0.230769 -0.461538  0.000000    0.00045517  34 t-inv F
 -0.692308 -0.230769 -0.230769    0.00045517  34 t-inv F
  0.461538  0.461538  0.692308    0.00045517  34 t-inv F
  0.000000  0.230769 -0.461538    0.00045517  34 t-inv F
 -0.230769 -0.692308 -0.230769    0.00045517  34 t-inv F
  0.692308  0.461538  0.461538    0.00045517  34 t-inv F
 -0.461538  0.000000  0.230769    0.00045517  34 t-inv F
  0.000000 -0.384615  0.230769    0.00045517  35 t-inv F
  0.230769  0.000000 -0.384615    0.00045517  35 t-inv F
 -0.230769 -0.230769 -0.615385    0.00045517  35 t-inv F
  0.384615  0.615385  0.384615    0.00045517  35 t-inv F
  0.230769 -0.384615  0.000000    0.00045517  35 t-inv F
 -0.615385 -0.230769 -0.230769    0.00045517  35 t-inv F
  0.384615  0.384615  0.615385    0.00045517  35 t-inv F
  0.000000  0.230769 -0.384615    0.00045517  35 t-inv F
 -0.230769 -0.615385 -0.230769    0.00045517  35 t-inv F
  0.615385  0.384615  0.384615    0.00045517  35 t-inv F
 -0.384615  0.000000  0.230769    0.00045517  35 t-inv F
  0.000000 -0.307692  0.230769    0.00045517  36 t-inv F
  0.230769  0.000000 -0.307692    0.00045517  36 t-inv F
 -0.230769 -0.230769 -0.538462    0.00045517  36 t-inv F
  0.307692  0.538462  0.307692    0.00045517  36 t-inv F
  0.230769 -0.307692  0.000000    0.00045517  36 t-inv F
 -0.538462 -0.230769 -0.230769    0.00045517  36 t-inv F
  0.307692  0.307692  0.538462    0.00045517  36 t-inv F
  0.000000  0.230769 -0.307692    0.00045517  36 t-inv F
 -0.230769 -0.538462 -0.230769    0.00045517  36 t-inv F
  0.538462  0.307692  0.307692    0.00045517  36 t-inv F
 -0.307692  0.000000  0.230769    0.00045517  36 t-inv F
  0.000000 -0.230769  0.230769    0.00045517  37 t-inv F
  0.230769  0.000000 -0.230769    0.00045517  37 t-inv F
 -0.230769 -0.230769 -0.461538    0.00045517  37 t-inv F
  0.230769  0.461538  0.230769    0.00045517  37 t-inv F
  0.230769 -0.230769  0.000000    0.00045517  37 t-inv F
 -0.461538 -0.230769 -0.230769    0.00045517  37 t-inv F
  0.230769  0.230769  0.461538    0.00045517  37 t-inv F
  0.000000  0.230769 -0.230769    0.00045517  37 t-inv F
 -0.230769 -0.461538 -0.230769    0.00045517  37 t-inv F
  0.461538  0.230769  0.230769    0.00045517  37 t-inv F
 -0.230769  0.000000  0.230769    0.00045517  37 t-inv F
  0.000000  0.307692  0.307692    0.00045517  38 t-inv F
  0.307692  0.000000  0.307692    0.00045517  38 t-inv F
 -0.307692 -0.307692  0.000000    0.00045517  38 t-inv F
 -0.307692  0.000000 -0.307692    0.00045517  38 t-inv F
  0.000000 -0.307692 -0.307692    0.00045517  38 t-inv F
  0.000000  0.384615  0.307692    0.00045517  39 t-inv F
  0.307692  0.000000  0.384615    0.00045517  39 t-inv F
 -0.307692 -0.307692  0.076923    0.00045517  39 t-inv F
 -0.384615 -0.076923 -0.384615    0.00045517  39 t-inv F
  0.307692  0.384615  0.000000    0.00045517  39 t-inv F
  0.076923 -0.307692 -0.307692    0.00045517  39 t-inv F
 -0.384615 -0.384615 -0.076923    0.00045517  39 t-inv F
  0.000000  0.307692  0.384615    0.00045517  39 t-inv F
 -0.307692  0.076923 -0.307692    0.00045517  39 t-inv F
 -0.076923 -0.384615 -0.384615    0.00045517  39 t-inv F
  0.384615  0.000000  0.307692    0.00045517  39 t-inv F
  0.000000  0.461538  0.307692    0.00045517  40 t-inv F
  0.307692  0.000000  0.461538    0.00045517  40 t-inv F
 -0.307692 -0.307692  0.153846    0.00045517  40 t-inv F
 -0.461538 -0.153846 -0.461538    0.00045517  40 t-inv F
  0.307692  0.461538  0.000000    0.00045517  40 t-inv F
  0.153846 -0.307692 -0.307692    0.00045517  40 t-inv F
 -0.461538 -0.461538 -0.153846    0.00045517  40 t-inv F
  0.000000  0.307692  0.461538    0.00045517  40 t-inv F
 -0.307692  0.153846 -0.307692    0.00045517  40 t-inv F
 -0.153846 -0.461538 -0.461538    0.00045517  40 t-inv F
  0.461538  0.000000  0.307692    0.00045517  40 t-inv F
  0.000000 -0.461538  0.307692    0.00045517  41 t-inv F
  0.307692  0.000000 -0.461538    0.00045517  41 t-inv F
 -0.307692 -0.307692 -0.769231    0.00045517  41 t-inv F
  0.461538  0.769231  0.461538    0.00045517  41 t-inv F
  0.307692 -0.461538  0.000000    0.00045517  41 t-inv F
 -0.769231 -0.307692 -0.307692    0.00045517  41 t-inv F
  0.461538  0.461538  0.769231    0.00045517  41 t-inv F
  0.000000  0.307692 -0.461538    0.00045517  41 t-inv F
 -0.307692 -0.769231 -0.307692    0.00045517  41 t-inv F
  0.769231  0.461538  0.461538    0.00045517  41 t-inv F
 -0.461538  0.000000  0.307692    0.00045517  41 t-inv F
  0.000000 -0.384615  0.307692    0.00045517  42 t-inv F
  0.307692  0.000000 -0.384615    0.00045517  42 t-inv F
 -0.307692 -0.307692 -0.692308    0.00045517  42 t-inv F
  0.384615  0.692308  0.384615    0.00045517  42 t-inv F
  0.307692 -0.384615  0.000000    0.00045517  42 t-inv F
 -0.692308 -0.307692 -0.307692    0.00045517  42 t-inv F
  0.384615  0.384615  0.692308    0.00045517  42 t-inv F
  0.000000  0.307692 -0.384615    0.00045517  42 t-inv F
 -0.307692 -0.692308 -0.307692    0.00045517  42 t-inv F
  0.692308  0.384615  0.384615    0.00045517  42 t-inv F
 -0.384615  0.000000  0.307692    0.00045517  42 t-inv F
  0.000000 -0.307692  0.307692    0.00045517  43 t-inv F
  0.307692  0.000000 -0.307692    0.00045517  43 t-inv F
 -0.307692 -0.307692 -0.615385    0.00045517  43 t-inv F
  0.307692  0.615385  0.307692    0.00045517  43 t-inv F
  0.307692 -0.307692  0.000000    0.00045517  43 t-inv F
 -0.615385 -0.307692 -0.307692    0.00045517  43 t-inv F
  0.307692  0.307692  0.615385    0.00045517  43 t-inv F
  0.000000  0.307692 -0.307692    0.00045517  43 t-inv F
 -0.307692 -0.615385 -0.307692    0.00045517  43 t-inv F
  0.615385  0.307692  0.307692    0.00045517  43 t-inv F
 -0.307692  0.000000  0.307692    0.00045517  43 t-inv F
  0.000000  0.384615  0.384615    0.00045517  44 t-inv F
  0.384615  0.000000  0.384615    0.00045517  44 t-inv F
 -0.384615 -0.384615  0.000000    0.00045517  44 t-inv F
 -0.384615  0.000000 -0.384615    0.00045517  44 t-inv F
  0.000000 -0.384615 -0.384615    0.00045517  44 t-inv F
  0.000000  0.461538  0.384615    0.00045517  45 t-inv F
  0.384615  0.000000  0.461538    0.00045517  45 t-inv F
 -0.384615 -0.384615  0.076923    0.00045517  45 t-inv F
 -0.461538 -0.076923 -0.461538    0.00045517  45 t-inv F
  0.384615  0.461538  0.000000    0.00045517  45 t-inv F
  0.076923 -0.384615 -0.384615    0.00045517  45 t-inv F
 -0.461538 -0.461538 -0.076923    0.00045517  45 t-inv F
  0.000000  0.384615  0.461538    0.00045517  45 t-inv F
 -0.384615  0.076923 -0.384615    0.00045517  45 t-inv F
 -0.076923 -0.461538 -0.461538    0.00045517  45 t-inv F
  0.461538  0.000000  0.384615    0.00045517  45 t-inv F
  0.000000 -0.461538  0.384615    0.00045517  46 t-inv F
  0.384615  0.000000 -0.461538    0.00045517  46 t-inv F
 -0.384615 -0.384615 -0.846154    0.00045517  46 t-inv F
  0.461538  0.846154  0.461538    0.00045517  46 t-inv F
  0.384615 -0.461538  0.000000    0.00045517  46 t-inv F
 -0.846154 -0.384615 -0.384615    0.00045517  46 t-inv F
  0.461538  0.461538  0.846154    0.00045517  46 t-inv F
  0.000000  0.384615 -0.461538    0.00045517  46 t-inv F
 -0.384615 -0.846154 -0.384615    0.00045517  46 t-inv F
  0.846154  0.461538  0.461538    0.00045517  46 t-inv F
 -0.461538  0.000000  0.384615    0.00045517  46 t-inv F
  0.000000 -0.384615  0.384615    0.00045517  47 t-inv F
  0.384615  0.000000 -0.384615    0.00045517  47 t-inv F
 -0.384615 -0.384615 -0.769231    0.00045517  47 t-inv F
  0.384615  0.769231  0.384615    0.00045517  47 t-inv F
  0.384615 -0.384615  0.000000    0.00045517  47 t-inv F
 -0.769231 -0.384615 -0.384615    0.00045517  47 t-inv F
  0.384615  0.384615  0.769231    0.00045517  47 t-inv F
  0.000000  0.384615 -0.384615    0.00045517  47 t-inv F
 -0.384615 -0.769231 -0.384615    0.00045517  47 t-inv F
  0.769231  0.384615  0.384615    0.00045517  47 t-inv F
 -0.384615  0.000000  0.384615    0.00045517  47 t-inv F
  0.000000  0.461538  0.461538    0.00045517  48 t-inv F
  0.461538  0.000000  0.461538    0.00045517  48 t-inv F
 -0.461538 -0.461538  0.000000    0.00045517  48 t-inv F
 -0.461538  0.000000 -0.461538    0.00045517  48 t-inv F
  0.000000 -0.461538 -0.461538    0.00045517  48 t-inv F
  0.000000 -0.461538  0.461538    0.00045517  49 t-inv F
  0.461538  0.000000 -0.461538    0.00045517  49 t-inv F
 -0.461538 -0.461538 -0.923077    0.00045517  49 t-inv F
  0.461538  0.923077  0.461538    0.00045517  49 t-inv F
  0.461538 -0.461538  0.000000    0.00045517  49 t-inv F
 -0.923077 -0.461538 -0.461538    0.00045517  49 t-inv F
  0.461538  0.461538  0.923077    0.00045517  49 t-inv F
  0.000000  0.461538 -0.461538    0.00045517  49 t-inv F
 -0.461538 -0.923077 -0.461538    0.00045517  49 t-inv F
  0.923077  0.461538  0.461538    0.00045517  49 t-inv F
 -0.461538  0.000000  0.461538    0.00045517  49 t-inv F
  0.076923  0.230769  0.153846    0.00045517  50 t-inv F
  0.153846  0.076923  0.230769    0.00045517  50 t-inv F
 -0.153846 -0.076923  0.076923    0.00045517  50 t-inv F
 -0.230769 -0.076923 -0.153846    0.00045517  50 t-inv F
 -0.076923  0.153846  0.076923    0.00045517  50 t-inv F
  0.076923  0.153846 -0.076923    0.00045517  50 t-inv F
  0.076923 -0.076923 -0.153846    0.00045517  50 t-inv F
 -0.153846 -0.076923 -0.230769    0.00045517  50 t-inv F
 -0.153846 -0.230769 -0.076923    0.00045517  50 t-inv F
  0.076923 -0.076923  0.153846    0.00045517  50 t-inv F
  0.076923 -0.153846 -0.076923    0.00045517  50 t-inv F
 -0.076923  0.076923  0.153846    0.00045517  50 t-inv F
 -0.153846  0.076923 -0.076923    0.00045517  50 t-inv F
 -0.230769 -0.153846 -0.076923    0.00045517  50 t-inv F
 -0.076923 -0.153846 -0.230769    0.00045517  50 t-inv F
  0.153846  0.076923 -0.076923    0.00045517  50 t-inv F
 -0.076923  0.076923 -0.153846    0.00045517  50 t-inv F
  0.153846 -0.076923  0.076923    0.00045517  50 t-inv F
 -0.076923 -0.153846  0.076923    0.00045517  50 t-inv F
 -0.076923 -0.230769 -0.153846    0.00045517  50 t-inv F
  0.230769  0.076923  0.153846    0.00045517  50 t-inv F
  0.153846  0.230769  0.076923    0.00045517  50 t-inv F
  0.076923  0.153846  0.230769    0.00045517  50 t-inv F
  0.076923  0.307692  0.153846    0.00045517  51 t-inv F
  0.153846  0.076923  0.307692    0.00045517  51 t-inv F
 -0.153846 -0.076923  0.153846    0.00045517  51 t-inv F
 -0.307692 -0.153846 -0.230769    0.00045517  51 t-inv F
 -0.076923  0.230769  0.076923    0.00045517  51 t-inv F
  0.076923  0.230769 -0.076923    0.00045517  51 t-inv F
  0.153846 -0.076923 -0.153846    0.00045517  51 t-inv F
 -0.230769 -0.153846 -0.307692    0.00045517  51 t-inv F
 -0.230769 -0.307692 -0.153846    0.00045517  51 t-inv F
  0.076923 -0.076923  0.230769    0.00045517  51 t-inv F
  0.153846 -0.153846 -0.076923    0.00045517  51 t-inv F
 -0.076923  0.076923  0.230769    0.00045517  51 t-inv F
 -0.153846  0.153846 -0.076923    0.00045517  51 t-inv F
 -0.307692 -0.230769 -0.153846    0.00045517  51 t-inv F
 -0.153846 -0.230769 -0.307692    0.00045517  51 t-inv F
  0.230769  0.076923 -0.076923    0.00045517  51 t-inv F
 -0.076923  0.153846 -0.153846    0.00045517  51 t-inv F
  0.230769 -0.076923  0.076923    0.00045517  51 t-inv F
 -0.076923 -0.153846  0.153846    0.00045517  51 t-inv F
 -0.153846 -0.307692 -0.230769    0.00045517  51 t-inv F
  0.307692  0.076923  0.153846    0.00045517  51 t-inv F
  0.153846  0.307692  0.076923    0.00045517  51 t-inv F
  0.076923  0.153846  0.307692    0.00045517  51 t-inv F
  0.076923  0.384615  0.153846    0.00045517  52 t-inv F
  0.153846  0.076923  0.384615    0.00045517  52 t-inv F
 -0.153846 -0.076923  0.230769    0.00045517  52 t-inv F
 -0.384615 -0.230769 -0.307692    0.00045517  52 t-inv F
 -0.076923  0.307692  0.076923    0.00045517  52 t-inv F
  0.076923  0.307692 -0.076923    0.00045517  52 t-inv F
  0.230769 -0.076923 -0.153846    0.00045517  52 t-inv F
 -0.307692 -0.230769 -0.384615    0.00045517  52 t-inv F
 -0.307692 -0.384615 -0.230769    0.00045517  52 t-inv F
  0.076923 -0.076923  0.307692    0.00045517  52 t-inv F
  0.230769 -0.153846 -0.076923    0.00045517  52 t-inv F
 -0.076923  0.076923  0.307692    0.00045517  52 t-inv F
 -0.153846  0.230769 -0.076923    0.00045517  52 t-inv F
 -0.384615 -0.307692 -0.230769    0.00045517  52 t-inv F
 -0.230769 -0.307692 -0.384615    0.00045517  52 t-inv F
  0.307692  0.076923 -0.076923    0.00045517  52 t-inv F
 -0.076923  0.230769 -0.153846    0.00045517  52 t-inv F
  0.307692 -0.076923  0.076923    0.00045517  52 t-inv F
 -0.076923 -0.153846  0.230769    0.00045517  52 t-inv F
 -0.230769 -0.384615 -0.307692    0.00045517  52 t-inv F
  0.384615  0.076923  0.153846    0.00045517  52 t-inv F
  0.153846  0.384615  0.076923    0.00045517  52 t-inv F
  0.076923  0.153846  0.384615    0.00045517  52 t-inv F
  0.076923  0.461538  0.153846    0.00045517  53 t-inv F
  0.153846  0.076923  0.461538    0.00045517  53 t-inv F
 -0.153846 -0.076923  0.307692    0.00045517  53 t-inv F
 -0.461538 -0.307692 -0.384615    0.00045517  53 t-inv F
 -0.076923  0.384615  0.076923    0.00045517  53 t-inv F
  0.076923  0.384615 -0.076923    0.00045517  53 t-inv F
  0.307692 -0.076923 -0.153846    0.00045517  53 t-inv F
 -0.384615 -0.307692 -0.461538    0.00045517  53 t-inv F
 -0.384615 -0.461538 -0.307692    0.00045517  53 t-inv F
  0.076923 -0.076923  0.384615    0.00045517  53 t-inv F
  0.307692 -0.153846 -0.076923    0.00045517  53 t-inv F
 -0.076923  0.076923  0.384615    0.00045517  53 t-inv F
 -0.153846  0.307692 -0.076923    0.00045517  53 t-inv F
 -0.461538 -0.384615 -0.307692    0.00045517  53 t-inv F
 -0.307692 -0.384615 -0.461538    0.00045517  53 t-inv F
  0.384615  0.076923 -0.076923    0.00045517  53 t-inv F
 -0.076923  0.307692 -0.153846    0.00045517  53 t-inv F
  0.384615 -0.076923  0.076923    0.00045517  53 t-inv F
 -0.076923 -0.153846  0.307692    0.00045517  53 t-inv F
 -0.307692 -0.461538 -0.384615    0.00045517  53 t-inv F
  0.461538  0.076923  0.153846    0.00045517  53 t-inv F
  0.153846  0.461538  0.076923    0.00045517  53 t-inv F
  0.076923  0.153846  0.461538    0.00045517  53 t-inv F
  0.076923 -0.461538  0.153846    0.00045517  54 t-inv F
  0.153846  0.076923 -0.461538    0.00045517  54 t-inv F
 -0.153846 -0.076923 -0.615385    0.00045517  54 t-inv F
  0.461538  0.615385  0.538462    0.00045517  54 t-inv F
 -0.076923 -0.538462  0.076923    0.00045517  54 t-inv F
  0.076923 -0.538462 -0.076923    0.00045517  54 t-inv F
 -0.615385 -0.076923 -0.153846    0.00045517  54 t-inv F
  0.538462  0.615385  0.461538    0.00045517  54 t-inv F
  0.538462  0.461538  0.615385    0.00045517  54 t-inv F
  0.076923 -0.076923 -0.538462    0.00045517  54 t-inv F
 -0.615385 -0.153846 -0.076923    0.00045517  54 t-inv F
 -0.076923  0.076923 -0.538462    0.00045517  54 t-inv F
 -0.153846 -0.615385 -0.076923    0.00045517  54 t-inv F
  0.461538  0.538462  0.615385    0.00045517  54 t-inv F
  0.615385  0.538462  0.461538    0.00045517  54 t-inv F
 -0.538462  0.076923 -0.076923    0.00045517  54 t-inv F
 -0.076923 -0.615385 -0.153846    0.00045517  54 t-inv F
 -0.538462 -0.076923  0.076923    0.00045517  54 t-inv F
 -0.076923 -0.153846 -0.615385    0.00045517  54 t-inv F
  0.615385  0.461538  0.538462    0.00045517  54 t-inv F
 -0.461538  0.076923  0.153846    0.00045517  54 t-inv F
  0.153846 -0.461538  0.076923    0.00045517  54 t-inv F
  0.076923  0.153846 -0.461538    0.00045517  54 t-inv F
  0.076923  0.307692  0.230769    0.00045517  55 t-inv F
  0.230769  0.076923  0.307692    0.00045517  55 t-inv F
 -0.230769 -0.153846  0.076923    0.00045517  55 t-inv F
 -0.307692 -0.076923 -0.230769    0.00045517  55 t-inv F
 -0.076923  0.230769  0.153846    0.00045517  55 t-inv F
  0.153846  0.230769 -0.076923    0.00045517  55 t-inv F
  0.076923 -0.153846 -0.230769    0.00045517  55 t-inv F
 -0.230769 -0.076923 -0.307692    0.00045517  55 t-inv F
 -0.230769 -0.307692 -0.076923    0.00045517  55 t-inv F
  0.153846 -0.076923  0.230769    0.00045517  55 t-inv F
  0.076923 -0.230769 -0.153846    0.00045517  55 t-inv F
 -0.076923  0.153846  0.230769    0.00045517  55 t-inv F
 -0.230769  0.076923 -0.153846    0.00045517  55 t-inv F
 -0.307692 -0.230769 -0.076923    0.00045517  55 t-inv F
 -0.076923 -0.230769 -0.307692    0.00045517  55 t-inv F
  0.230769  0.153846 -0.076923    0.00045517  55 t-inv F
 -0.153846  0.076923 -0.230769    0.00045517  55 t-inv F
  0.230769 -0.076923  0.153846    0.00045517  55 t-inv F
 -0.153846 -0.230769  0.076923    0.00045517  55 t-inv F
 -0.076923 -0.307692 -0.230769    0.00045517  55 t-inv F
  0.307692  0.076923  0.230769    0.00045517  55 t-inv F
  0.230769  0.307692  0.076923    0.00045517  55 t-inv F
  0.076923  0.230769  0.307692    0.00045517  55 t-inv F
  0.076923  0.384615  0.230769    0.00045517  56 t-inv F
  0.230769  0.076923  0.384615    0.00045517  56 t-inv F
 -0.230769 -0.153846  0.153846    0.00045517  56 t-inv F
 -0.384615 -0.153846 -0.307692    0.00045517  56 t-inv F
 -0.076923  0.307692  0.153846    0.00045517  56 t-inv F
  0.153846  0.307692 -0.076923    0.00045517  56 t-inv F
  0.153846 -0.153846 -0.230769    0.00045517  56 t-inv F
 -0.307692 -0.153846 -0.384615    0.00045517  56 t-inv F
 -0.307692 -0.384615 -0.153846    0.00045517  56 t-inv F
  0.153846 -0.076923  0.307692    0.00045517  56 t-inv F
  0.153846 -0.230769 -0.153846    0.00045517  56 t-inv F
 -0.076923  0.153846  0.307692    0.00045517  56 t-inv F
 -0.230769  0.153846 -0.153846    0.00045517  56 t-inv F
 -0.384615 -0.307692 -0.153846    0.00045517  56 t-inv F
 -0.153846 -0.307692 -0.384615    0.00045517  56 t-inv F
  0.307692  0.153846 -0.076923    0.00045517  56 t-inv F
 -0.153846  0.153846 -0.230769    0.00045517  56 t-inv F
  0.307692 -0.076923  0.153846    0.00045517  56 t-inv F
 -0.153846 -0.230769  0.153846    0.00045517  56 t-inv F
 -0.153846 -0.384615 -0.307692    0.00045517  56 t-inv F
  0.384615  0.076923  0.230769    0.00045517  56 t-inv F
  0.230769  0.384615  0.076923    0.00045517  56 t-inv F
  0.076923  0.230769  0.384615    0.00045517  56 t-inv F
  0.076923  0.461538  0.230769    0.00045517  57 t-inv F
  0.230769  0.076923  0.461538    0.00045517  57 t-inv F
 -0.230769 -0.153846  0.230769    0.00045517  57 t-inv F
 -0.461538 -0.230769 -0.384615    0.00045517  57 t-inv F
 -0.076923  0.384615  0.153846    0.00045517  57 t-inv F
  0.153846  0.384615 -0.076923    0.00045517  57 t-inv F
  0.230769 -0.153846 -0.230769    0.00045517  57 t-inv F
 -0.384615 -0.230769 -0.461538    0.00045517  57 t-inv F
 -0.384615 -0.461538 -0.230769    0.00045517  57 t-inv F
  0.153846 -0.076923  0.384615    0.00045517  57 t-inv F
  0.230769 -0.230769 -0.153846    0.00045517  57 t-inv F
 -0.076923  0.153846  0.384615    0.00045517  57 t-inv F
 -0.230769  0.230769 -0.153846    0.00045517  57 t-inv F
 -0.461538 -0.384615 -0.230769    0.00045517  57 t-inv F
 -0.230769 -0.384615 -0.461538    0.00045517  57 t-inv F
  0.384615  0.153846 -0.076923    0.00045517  57 t-inv F
 -0.153846  0.230769 -0.230769    0.00045517  57 t-inv F
  0.384615 -0.076923  0.153846    0.00045517  57 t-inv F
 -0.153846 -0.230769  0.230769    0.00045517  57 t-inv F
 -0.230769 -0.461538 -0.384615    0.00045517  57 t-inv F
  0.461538  0.076923  0.230769    0.00045517  57 t-inv F
  0.230769  0.461538  0.076923    0.00045517  57 t-inv F
  0.076923  0.230769  0.461538    0.00045517  57 t-inv F
  0.076923 -0.461538  0.230769    0.00045517  58 t-inv F
  0.230769  0.076923 -0.461538    0.00045517  58 t-inv F
 -0.230769 -0.153846 -0.692308    0.00045517  58 t-inv F
  0.461538  0.692308  0.538462    0.00045517  58 t-inv F
 -0.076923 -0.538462  0.153846    0.00045517  58 t-inv F
  0.153846 -0.538462 -0.076923    0.00045517  58 t-inv F
 -0.692308 -0.153846 -0.230769    0.00045517  58 t-inv F
  0.538462  0.692308  0.461538    0.00045517  58 t-inv F
  0.538462  0.461538  0.692308    0.00045517  58 t-inv F
  0.153846 -0.076923 -0.538462    0.00045517  58 t-inv F
 -0.692308 -0.230769 -0.153846    0.00045517  58 t-inv F
 -0.076923  0.153846 -0.538462    0.00045517  58 t-inv F
 -0.230769 -0.692308 -0.153846    0.00045517  58 t-inv F
  0.461538  0.538462  0.692308    0.00045517  58 t-inv F
  0.692308  0.538462  0.461538    0.00045517  58 t-inv F
 -0.538462  0.153846 -0.076923    0.00045517  58 t-inv F
 -0.153846 -0.692308 -0.230769    0.00045517  58 t-inv F
 -0.538462 -0.076923  0.153846    0.00045517  58 t-inv F
 -0.153846 -0.230769 -0.692308    0.00045517  58 t-inv F
  0.692308  0.461538  0.538462    0.00045517  58 t-inv F
 -0.461538  0.076923  0.230769    0.00045517  58 t-inv F
  0.230769 -0.461538  0.076923    0.00045517  58 t-inv F
  0.076923  0.230769 -0.461538    0.00045517  58 t-inv F
  0.076923 -0.384615  0.230769    0.00045517  59 t-inv F
  0.230769  0.076923 -0.384615    0.00045517  59 t-inv F
 -0.230769 -0.153846 -0.615385    0.00045517  59 t-inv F
  0.384615  0.615385  0.461538    0.00045517  59 t-inv F
 -0.076923 -0.461538  0.153846    0.00045517  59 t-inv F
  0.153846 -0.461538 -0.076923    0.00045517  59 t-inv F
 -0.615385 -0.153846 -0.230769    0.00045517  59 t-inv F
  0.461538  0.615385  0.384615    0.00045517  59 t-inv F
  0.461538  0.384615  0.615385    0.00045517  59 t-inv F
  0.153846 -0.076923 -0.461538    0.00045517  59 t-inv F
 -0.615385 -0.230769 -0.153846    0.00045517  59 t-inv F
 -0.076923  0.153846 -0.461538    0.00045517  59 t-inv F
 -0.230769 -0.615385 -0.153846    0.00045517  59 t-inv F
  0.384615  0.461538  0.615385    0.00045517  59 t-inv F
  0.615385  0.461538  0.384615    0.00045517  59 t-inv F
 -0.461538  0.153846 -0.076923    0.00045517  59 t-inv F
 -0.153846 -0.615385 -0.230769    0.00045517  59 t-inv F
 -0.461538 -0.076923  0.153846    0.00045517  59 t-inv F
 -0.153846 -0.230769 -0.615385    0.00045517  59 t-inv F
  0.615385  0.384615  0.461538    0.00045517  59 t-inv F
 -0.384615  0.076923  0.230769    0.00045517  59 t-inv F
  0.230769 -0.384615  0.076923    0.00045517  59 t-inv F
  0.076923  0.230769 -0.384615    0.00045517  59 t-inv F
  0.076923 -0.307692  0.230769    0.00045517  60 t-inv F
  0.230769  0.076923 -0.307692    0.00045517  60 t-inv F
 -0.230769 -0.153846 -0.538462    0.00045517  60 t-inv F
  0.307692  0.538462  0.384615    0.00045517  60 t-inv F
 -0.076923 -0.384615  0.153846    0.00045517  60 t-inv F
  0.153846 -0.384615 -0.076923    0.00045517  60 t-inv F
 -0.538462 -0.153846 -0.230769    0.00045517  60 t-inv F
  0.384615  0.538462  0.307692    0.00045517  60 t-inv F
  0.384615  0.307692  0.538462    0.00045517  60 t-inv F
  0.153846 -0.076923 -0.384615    0.00045517  60 t-inv F
 -0.538462 -0.230769 -0.153846    0.00045517  60 t-inv F
 -0.076923  0.153846 -0.384615    0.00045517  60 t-inv F
 -0.230769 -0.538462 -0.153846    0.00045517  60 t-inv F
  0.307692  0.384615  0.538462    0.00045517  60 t-inv F
  0.538462  0.384615  0.307692    0.00045517  60 t-inv F
 -0.384615  0.153846 -0.076923    0.00045517  60 t-inv F
 -0.153846 -0.538462 -0.230769    0.00045517  60 t-inv F
 -0.384615 -0.076923  0.153846    0.00045517  60 t-inv F
 -0.153846 -0.230769 -0.538462    0.00045517  60 t-inv F
  0.538462  0.307692  0.384615    0.00045517  60 t-inv F
 -0.307692  0.076923  0.230769    0.00045517  60 t-inv F
  0.230769 -0.307692  0.076923    0.00045517  60 t-inv F
  0.076923  0.230769 -0.307692    0.00045517  60 t-inv F
  0.076923 -0.230769  0.230769    0.00045517  61 t-inv F
  0.230769  0.076923 -0.230769    0.00045517  61 t-inv F
 -0.230769 -0.153846 -0.461538    0.00045517  61 t-inv F
  0.230769  0.461538  0.307692    0.00045517  61 t-inv F
 -0.076923 -0.307692  0.153846    0.00045517  61 t-inv F
  0.153846 -0.307692 -0.076923    0.00045517  61 t-inv F
 -0.461538 -0.153846 -0.230769    0.00045517  61 t-inv F
  0.307692  0.461538  0.230769    0.00045517  61 t-inv F
  0.307692  0.230769  0.461538    0.00045517  61 t-inv F
  0.153846 -0.076923 -0.307692    0.00045517  61 t-inv F
 -0.461538 -0.230769 -0.153846    0.00045517  61 t-inv F
 -0.076923  0.153846 -0.307692    0.00045517  61 t-inv F
 -0.230769 -0.461538 -0.153846    0.00045517  61 t-inv F
  0.230769  0.307692  0.461538    0.00045517  61 t-inv F
  0.461538  0.307692  0.230769    0.00045517  61 t-inv F
 -0.307692  0.153846 -0.076923    0.00045517  61 t-inv F
 -0.153846 -0.461538 -0.230769    0.00045517  61 t-inv F
 -0.307692 -0.076923  0.153846    0.00045517  61 t-inv F
 -0.153846 -0.230769 -0.461538    0.00045517  61 t-inv F
  0.461538  0.230769  0.307692    0.00045517  61 t-inv F
 -0.230769  0.076923  0.230769    0.00045517  61 t-inv F
  0.230769 -0.230769  0.076923    0.00045517  61 t-inv F
  0.076923  0.230769 -0.230769    0.00045517  61 t-inv F
  0.076923 -0.153846  0.230769    0.00045517  62 t-inv F
  0.230769  0.076923 -0.153846    0.00045517  62 t-inv F
 -0.230769 -0.153846 -0.384615    0.00045517  62 t-inv F
  0.153846  0.384615  0.230769    0.00045517  62 t-inv F
 -0.076923 -0.230769  0.153846    0.00045517  62 t-inv F
  0.153846 -0.230769 -0.076923    0.00045517  62 t-inv F
 -0.384615 -0.153846 -0.230769    0.00045517  62 t-inv F
  0.230769  0.384615  0.153846    0.00045517  62 t-inv F
  0.230769  0.153846  0.384615    0.00045517  62 t-inv F
  0.153846 -0.076923 -0.230769    0.00045517  62 t-inv F
 -0.384615 -0.230769 -0.153846    0.00045517  62 t-inv F
 -0.076923  0.153846 -0.230769    0.00045517  62 t-inv F
 -0.230769 -0.384615 -0.153846    0.00045517  62 t-inv F
  0.153846  0.230769  0.384615    0.00045517  62 t-inv F
  0.384615  0.230769  0.153846    0.00045517  62 t-inv F
 -0.230769  0.153846 -0.076923    0.00045517  62 t-inv F
 -0.153846 -0.384615 -0.230769    0.00045517  62 t-inv F
 -0.230769 -0.076923  0.153846    0.00045517  62 t-inv F
 -0.153846 -0.230769 -0.384615    0.00045517  62 t-inv F
  0.384615  0.153846  0.230769    0.00045517  62 t-inv F
 -0.153846  0.076923  0.230769    0.00045517  62 t-inv F
  0.230769 -0.153846  0.076923    0.00045517  62 t-inv F
  0.076923  0.230769 -0.153846    0.00045517  62 t-inv F
  0.076923  0.384615  0.307692    0.00045517  63 t-inv F
  0.307692  0.076923  0.384615    0.00045517  63 t-inv F
 -0.307692 -0.230769  0.076923    0.00045517  63 t-inv F
 -0.384615 -0.076923 -0.307692    0.00045517  63 t-inv F
 -0.076923  0.307692  0.230769    0.00045517  63 t-inv F
  0.230769  0.307692 -0.076923    0.00045517  63 t-inv F
  0.076923 -0.230769 -0.307692    0.00045517  63 t-inv F
 -0.307692 -0.076923 -0.384615    0.00045517  63 t-inv F
 -0.307692 -0.384615 -0.076923    0.00045517  63 t-inv F
  0.230769 -0.076923  0.307692    0.00045517  63 t-inv F
  0.076923 -0.307692 -0.230769    0.00045517  63 t-inv F
 -0.076923  0.230769  0.307692    0.00045517  63 t-inv F
 -0.307692  0.076923 -0.230769    0.00045517  63 t-inv F
 -0.384615 -0.307692 -0.076923    0.00045517  63 t-inv F
 -0.076923 -0.307692 -0.384615    0.00045517  63 t-inv F
  0.307692  0.230769 -0.076923    0.00045517  63 t-inv F
 -0.230769  0.076923 -0.307692    0.00045517  63 t-inv F
  0.307692 -0.076923  0.230769    0.00045517  63 t-inv F
 -0.230769 -0.307692  0.076923    0.00045517  63 t-inv F
 -0.076923 -0.384615 -0.307692    0.00045517  63 t-inv F
  0.384615  0.076923  0.307692    0.00045517  63 t-inv F
  0.307692  0.384615  0.076923    0.00045517  63 t-inv F
  0.076923  0.307692  0.384615    0.00045517  63 t-inv F
  0.076923  0.461538  0.307692    0.00045517  64 t-inv F
  0.307692  0.076923  0.461538    0.00045517  64 t-inv F
 -0.307692 -0.230769  0.153846    0.00045517  64 t-inv F
 -0.461538 -0.153846 -0.384615    0.00045517  64 t-inv F
 -0.076923  0.384615  0.230769    0.00045517  64 t-inv F
  0.230769  0.384615 -0.076923    0.00045517  64 t-inv F
  0.153846 -0.230769 -0.307692    0.00045517  64 t-inv F
 -0.384615 -0.153846 -0.461538    0.00045517  64 t-inv F
 -0.384615 -0.461538 -0.153846    0.00045517  64 t-inv F
  0.230769 -0.076923  0.384615    0.00045517  64 t-inv F
  0.153846 -0.307692 -0.230769    0.00045517  64 t-inv F
 -0.076923  0.230769  0.384615    0.00045517  64 t-inv F
 -0.307692  0.153846 -0.230769    0.00045517  64 t-inv F
 -0.461538 -0.384615 -0.153846    0.00045517  64 t-inv F
 -0.153846 -0.384615 -0.461538    0.00045517  64 t-inv F
  0.384615  0.230769 -0.076923    0.00045517  64 t-inv F
 -0.230769  0.153846 -0.307692    0.00045517  64 t-inv F
  0.384615 -0.076923  0.230769    0.00045517  64 t-inv F
 -0.230769 -0.307692  0.153846    0.00045517  64 t-inv F
 -0.153846 -0.461538 -0.384615    0.00045517  64 t-inv F
  0.461538  0.076923  0.307692    0.00045517  64 t-inv F
  0.307692  0.461538  0.076923    0.00045517  64 t-inv F
  0.076923  0.307692  0.461538    0.00045517  64 t-inv F
  0.076923 -0.461538  0.307692    0.00045517  65 t-inv F
  0.307692  0.076923 -0.461538    0.00045517  65 t-inv F
 -0.307692 -0.230769 -0.769231    0.00045517  65 t-inv F
  0.461538  0.769231  0.538462    0.00045517  65 t-inv F
 -0.076923 -0.538462  0.230769    0.00045517  65 t-inv F
  0.230769 -0.538462 -0.076923    0.00045517  65 t-inv F
 -0.769231 -0.230769 -0.307692    0.00045517  65 t-inv F
  0.538462  0.769231  0.461538    0.00045517  65 t-inv F
  0.538462  0.461538  0.769231    0.00045517  65 t-inv F
  0.230769 -0.076923 -0.538462    0.00045517  65 t-inv F
 -0.769231 -0.307692 -0.230769    0.00045517  65 t-inv F
 -0.076923  0.230769 -0.538462    0.00045517  65 t-inv F
 -0.307692 -0.769231 -0.230769    0.00045517  65 t-inv F
  0.461538  0.538462  0.769231    0.00045517  65 t-inv F
  0.769231  0.538462  0.461538    0.00045517  65 t-inv F
 -0.538462  0.230769 -0.076923    0.00045517  65 t-inv F
 -0.230769 -0.769231 -0.307692    0.00045517  65 t-inv F
 -0.538462 -0.076923  0.230769    0.00045517  65 t-inv F
 -0.230769 -0.307692 -0.769231    0.00045517  65 t-inv F
  0.769231  0.461538  0.538462    0.00045517  65 t-inv F
 -0.461538  0.076923  0.307692    0.00045517  65 t-inv F
  0.307692 -0.461538  0.076923    0.00045517  65 t-inv F
  0.076923  0.307692 -0.461538    0.00045517  65 t-inv F
  0.076923 -0.384615  0.307692    0.00045517  66 t-inv F
  0.307692  0.076923 -0.384615    0.00045517  66 t-inv F
 -0.307692 -0.230769 -0.692308    0.00045517  66 t-inv F
  0.384615  0.692308  0.461538    0.00045517  66 t-inv F
 -0.076923 -0.461538  0.230769    0.00045517  66 t-inv F
  0.230769 -0.461538 -0.076923    0.00045517  66 t-inv F
 -0.692308 -0.230769 -0.307692    0.00045517  66 t-inv F
  0.461538  0.692308  0.384615    0.00045517  66 t-inv F
  0.461538  0.384615  0.692308    0.00045517  66 t-inv F
  0.230769 -0.076923 -0.461538    0.00045517  66 t-inv F
 -0.692308 -0.307692 -0.230769    0.00045517  66 t-inv F
 -0.076923  0.230769 -0.461538    0.00045517  66 t-inv F
 -0.307692 -0.692308 -0.230769    0.00045517  66 t-inv F
  0.384615  0.461538  0.692308    0.00045517  66 t-inv F
  0.692308  0.461538  0.384615    0.00045517  66 t-inv F
 -0.461538  0.230769 -0.076923    0.00045517  66 t-inv F
 -0.230769 -0.692308 -0.307692    0.00045517  66 t-inv F
 -0.461538 -0.076923  0.230769    0.00045517  66 t-inv F
 -0.230769 -0.307692 -0.692308    0.00045517  66 t-inv F
  0.692308  0.384615  0.461538    0.00045517  66 t-inv F
 -0.384615  0.076923  0.307692    0.00045517  66 t-inv F
  0.307692 -0.384615  0.076923    0.00045517  66 t-inv F
  0.076923  0.307692 -0.384615    0.00045517  66 t-inv F
  0.076923 -0.307692  0.307692    0.00045517  67 t-inv F
  0.307692  0.076923 -0.307692    0.00045517  67 t-inv F
 -0.307692 -0.230769 -0.615385    0.00045517  67 t-inv F
  0.307692  0.615385  0.384615    0.00045517  67 t-inv F
 -0.076923 -0.384615  0.230769    0.00045517  67 t-inv F
  0.230769 -0.384615 -0.076923    0.00045517  67 t-inv F
 -0.615385 -0.230769 -0.307692    0.00045517  67 t-inv F
  0.384615  0.615385  0.307692    0.00045517  67 t-inv F
  0.384615  0.307692  0.615385    0.00045517  67 t-inv F
  0.230769 -0.076923 -0.384615    0.00045517  67 t-inv F
 -0.615385 -0.307692 -0.230769    0.00045517  67 t-inv F
 -0.076923  0.230769 -0.384615    0.00045517  67 t-inv F
 -0.307692 -0.615385 -0.230769    0.00045517  67 t-inv F
  0.307692  0.384615  0.615385    0.00045517  67 t-inv F
  0.615385  0.384615  0.307692    0.00045517  67 t-inv F
 -0.384615  0.230769 -0.076923    0.00045517  67 t-inv F
 -0.230769 -0.615385 -0.307692    0.00045517  67 t-inv F
 -0.384615 -0.076923  0.230769    0.00045517  67 t-inv F
 -0.230769 -0.307692 -0.615385    0.00045517  67 t-inv F
  0.615385  0.307692  0.384615    0.00045517  67 t-inv F
 -0.307692  0.076923  0.307692    0.00045517  67 t-inv F
  0.307692 -0.307692  0.076923    0.00045517  67 t-inv F
  0.076923  0.307692 -0.307692    0.00045517  67 t-inv F
  0.076923 -0.230769  0.307692    0.00045517  68 t-inv F
  0.307692  0.076923 -0.230769    0.00045517  68 t-inv F
 -0.307692 -0.230769 -0.538462    0.00045517  68 t-inv F
  0.230769  0.538462  0.307692    0.00045517  68 t-inv F
 -0.076923 -0.307692  0.230769    0.00045517  68 t-inv F
  0.230769 -0.307692 -0.076923    0.00045517  68 t-inv F
 -0.538462 -0.230769 -0.307692    0.00045517  68 t-inv F
  0.307692  0.538462  0.230769    0.00045517  68 t-inv F
  0.307692  0.230769  0.538462    0.00045517  68 t-inv F
  0.230769 -0.076923 -0.307692    0.00045517  68 t-inv F
 -0.538462 -0.307692 -0.230769    0.00045517  68 t-inv F
 -0.076923  0.230769 -0.307692    0.00045517  68 t-inv F
 -0.307692 -0.538462 -0.230769    0.00045517  68 t-inv F
  0.230769  0.307692  0.538462    0.00045517  68 t-inv F
  0.538462  0.307692  0.230769    0.00045517  68 t-inv F
 -0.307692  0.230769 -0.076923    0.00045517  68 t-inv F
 -0.230769 -0.538462 -0.307692    0.00045517  68 t-inv F
 -0.307692 -0.076923  0.230769    0.00045517  68 t-inv F
 -0.230769 -0.307692 -0.538462    0.00045517  68 t-inv F
  0.538462  0.230769  0.307692    0.00045517  68 t-inv F
 -0.230769  0.076923  0.307692    0.00045517  68 t-inv F
  0.307692 -0.230769  0.076923    0.00045517  68 t-inv F
  0.076923  0.307692 -0.230769    0.00045517  68 t-inv F
  0.076923  0.461538  0.384615    0.00045517  69 t-inv F
  0.384615  0.076923  0.461538    0.00045517  69 t-inv F
 -0.384615 -0.307692  0.076923    0.00045517  69 t-inv F
 -0.461538 -0.076923 -0.384615    0.00045517  69 t-inv F
 -0.076923  0.384615  0.307692    0.00045517  69 t-inv F
  0.307692  0.384615 -0.076923    0.00045517  69 t-inv F
  0.076923 -0.307692 -0.384615    0.00045517  69 t-inv F
 -0.384615 -0.076923 -0.461538    0.00045517  69 t-inv F
 -0.384615 -0.461538 -0.076923    0.00045517  69 t-inv F
  0.307692 -0.076923  0.384615    0.00045517  69 t-inv F
  0.076923 -0.384615 -0.307692    0.00045517  69 t-inv F
 -0.076923  0.307692  0.384615    0.00045517  69 t-inv F
 -0.384615  0.076923 -0.307692    0.00045517  69 t-inv F
 -0.461538 -0.384615 -0.076923    0.00045517  69 t-inv F
 -0.076923 -0.384615 -0.461538    0.00045517  69 t-inv F
  0.384615  0.307692 -0.076923    0.00045517  69 t-inv F
 -0.307692  0.076923 -0.384615    0.00045517  69 t-inv F
[...]
     17      28.8131      0.00000
     18      32.6983      0.00000

 k-point   222 :       0.5000    0.2500    0.7500
  band No.  band energies     occupation 
      1     -18.4761      2.00000
      2      -6.4335      2.00000
      3      -5.7122      2.00000
      4      -5.5613      2.00000
      5      -5.1863      2.00000
      6      -4.6089      2.00000
      7      -3.8301      2.00000
      8      -2.9257      2.00000
      9      -2.1137      2.00000
     10       9.5227      0.00000
     11      12.3211      0.00000
     12      13.7176      0.00000
     13      14.1945      0.00000
     14      21.0025      0.00000
     15      23.9959      0.00000
     16      28.3002      0.00000
     17      28.8167      0.00000
     18      32.7121      0.00000

 k-point   223 :       0.5000    0.2500    0.7500
  band No.  band energies     occupation 
      1     -18.4761      2.00000
      2      -6.4335      2.00000
      3      -5.7122      2.00000
      4      -5.5613      2.00000
      5      -5.1863      2.00000
      6      -4.6089      2.00000
      7      -3.8301      2.00000
      8      -2.9257      2.00000
      9      -2.1137      2.00000
     10       9.5227      0.00000
     11      12.3211      0.00000
     12      13.7176      0.00000
     13      14.1945      0.00000
     14      21.0025      0.00000
     15      23.9959      0.00000
     16      28.3002      0.00000
     17      28.8167      0.00000
     18      32.7121      0.00000

 k-point   224 :       0.5000    0.2344    0.7344
  band No.  band energies     occupation 
      1     -18.4761      2.00000
      2      -6.4387      2.00000
      3      -5.7112      2.00000
      4      -5.5612      2.00000
      5      -5.1835      2.00000
      6      -4.6149      2.00000
      7      -3.8259      2.00000
      8      -2.9170      2.00000
      9      -2.1139      2.00000
     10       9.4920      0.00000
     11      12.3200      0.00000
     12      13.7193      0.00000
     13      14.2342      0.00000
     14      20.9227      0.00000
     15      24.0980      0.00000
     16      28.1987      0.00000
     17      28.9087      0.00000
     18      32.6976      0.00000

 k-point   225 :       0.5000    0.2188    0.7188
  band No.  band energies     occupation 
      1     -18.4762      2.00000
      2      -6.4539      2.00000
      3      -5.7083      2.00000
      4      -5.5607      2.00000
      5      -5.1753      2.00000
      6      -4.6322      2.00000
      7      -3.8133      2.00000
      8      -2.8917      2.00000
      9      -2.1144      2.00000
     10       9.4033      0.00000
     11      12.3166      0.00000
     12      13.7243      0.00000
     13      14.3496      0.00000
     14      20.7108      0.00000
     15      24.3763      0.00000
     16      27.9896      0.00000
     17      29.0867      0.00000
     18      32.6551      0.00000

 k-point   226 :       0.5000    0.2031    0.7031
  band No.  band energies     occupation 
      1     -18.4764      2.00000
      2      -6.4778      2.00000
      3      -5.7035      2.00000
      4      -5.5600      2.00000
      5      -5.1626      2.00000
      6      -4.6597      2.00000
      7      -3.7927      2.00000
      8      -2.8514      2.00000
      9      -2.1154      2.00000
     10       9.2664      0.00000
     11      12.3111      0.00000
     12      13.7323      0.00000
     13      14.5306      0.00000
     14      20.4203      0.00000
     15      24.7775      0.00000
     16      27.7475      0.00000
     17      29.2749      0.00000
     18      32.5911      0.00000

 k-point   227 :       0.5000    0.1875    0.6875
  band No.  band energies     occupation 
      1     -18.4766      2.00000
      2      -6.5088      2.00000
      3      -5.6968      2.00000
      4      -5.5591      2.00000
      5      -5.1467      2.00000
      6      -4.6954      2.00000
      7      -3.7649      2.00000
      8      -2.7984      2.00000
      9      -2.1168      2.00000
     10       9.0937      0.00000
     11      12.3038      0.00000
     12      13.7432      0.00000
     13      14.7643      0.00000
     14      20.0940      0.00000
     15      25.2582      0.00000
     16      27.4921      0.00000
     17      29.4508      0.00000
     18      32.5084      0.00000

 k-point   228 :       0.5000    0.1719    0.6719
  band No.  band energies     occupation 
      1     -18.4769      2.00000
      2      -6.5448      2.00000
      3      -5.6882      2.00000
      4      -5.5583      2.00000
      5      -5.1290      2.00000
      6      -4.7372      2.00000
      7      -3.7308      2.00000
      8      -2.7355      2.00000
      9      -2.1185      2.00000
     10       8.8977      0.00000
     11      12.2949      0.00000
     12      13.7565      0.00000
     13      15.0373      0.00000
     14      19.7586      0.00000
     15      25.7917      0.00000
     16      27.2295      0.00000
     17      29.6045      0.00000
     18      32.4148      0.00000

 k-point   229 :       0.5000    0.1562    0.6562
  band No.  band energies     occupation 
      1     -18.4772      2.00000
      2      -6.5839      2.00000
      3      -5.6779      2.00000
      4      -5.5575      2.00000
      5      -5.1107      2.00000
      6      -4.7832      2.00000
      7      -3.6917      2.00000
      8      -2.6655      2.00000
      9      -2.1207      2.00000
     10       8.6896      0.00000
     11      12.2848      0.00000
     12      13.7718      0.00000
     13      15.3374      0.00000
     14      19.4294      0.00000
     15      26.3621      0.00000
     16      26.9643      0.00000
     17      29.7306      0.00000
     18      32.3168      0.00000

 k-point   230 :       0.5000    0.1406    0.6406
  band No.  band energies     occupation 
      1     -18.4774      2.00000
      2      -6.6243      2.00000
      3      -5.6659      2.00000
      4      -5.5568      2.00000
      5      -5.0928      2.00000
      6      -4.8315      2.00000
      7      -3.6488      2.00000
      8      -2.5914      2.00000
      9      -2.1231      2.00000
     10       8.4785      0.00000
     11      12.2739      0.00000
     12      13.7886      0.00000
     13      15.6533      0.00000
     14      19.1160      0.00000
     15      26.6988      0.00000
     16      26.9602      0.00000
     17      29.8261      0.00000
     18      32.2182      0.00000

 k-point   231 :       0.5000    0.1250    0.6250
  band No.  band energies     occupation 
      1     -18.4778      2.00000
      2      -6.6642      2.00000
      3      -5.6525      2.00000
      4      -5.5562      2.00000
      5      -5.0761      2.00000
      6      -4.8804      2.00000
      7      -3.6040      2.00000
      8      -2.5159      2.00000
      9      -2.1258      2.00000
     10       8.2721      0.00000
     11      12.2627      0.00000
     12      13.8062      0.00000
     13      15.9751      0.00000
     14      18.8243      0.00000
     15      26.4361      0.00000
     16      27.5773      0.00000
     17      29.8916      0.00000
     18      32.1232      0.00000

 k-point   232 :       0.5000    0.1094    0.6094
  band No.  band energies     occupation 
      1     -18.4782      2.00000
      2      -6.7023      2.00000
      3      -5.6378      2.00000
      4      -5.5557      2.00000
      5      -5.0610      2.00000
      6      -4.9286      2.00000
      7      -3.5590      2.00000
      8      -2.4417      2.00000
      9      -2.1288      2.00000
     10       8.0765      0.00000
     11      12.2516      0.00000
     12      13.8241      0.00000
     13      16.2938      0.00000
     14      18.5588      0.00000
     15      26.1798      0.00000
     16      28.2079      0.00000
     17      29.9278      0.00000
     18      32.0363      0.00000

 k-point   233 :       0.5000    0.0938    0.5938
  band No.  band energies     occupation 
      1     -18.4785      2.00000
      2      -6.7375      2.00000
      3      -5.6222      2.00000
      4      -5.5553      2.00000
      5      -5.0479      2.00000
      6      -4.9747      2.00000
      7      -3.5154      2.00000
      8      -2.3713      2.00000
      9      -2.1318      2.00000
     10       7.8970      0.00000
     11      12.2410      0.00000
     12      13.8416      0.00000
     13      16.5999      0.00000
     14      18.3229      0.00000
     15      25.9340      0.00000
     16      28.8466      0.00000
     17      29.9416      0.00000
     18      31.9580      0.00000

 k-point   234 :       0.5000    0.0781    0.5781
  band No.  band energies     occupation 
      1     -18.4788      2.00000
      2      -6.7688      2.00000
      3      -5.6063      2.00000
      4      -5.5550      2.00000
      5      -5.0369      2.00000
      6      -5.0175      2.00000
      7      -3.4750      2.00000
      8      -2.3070      2.00000
      9      -2.1348      2.00000
     10       7.7378      0.00000
     11      12.2312      0.00000
     12      13.8580      0.00000
     13      16.8841      0.00000
     14      18.1189      0.00000
     15      25.7058      0.00000
     16      29.4887      0.00000
     17      29.9391      0.00000
     18      31.8875      0.00000

 k-point   235 :       0.5000    0.0625    0.5625
  band No.  band energies     occupation 
      1     -18.4790      2.00000
      2      -6.7953      2.00000
      3      -5.5907      2.00000
      4      -5.5548      2.00000
      5      -5.0557      2.00000
      6      -5.0280      2.00000
      7      -3.4395      2.00000
      8      -2.2510      2.00000
      9      -2.1376      2.00000
     10       7.6025      0.00000
     11      12.2227      0.00000
     12      13.8726      0.00000
     13      17.1366      0.00000
     14      17.9491      0.00000
     15      25.5020      0.00000
     16      29.9266      0.00000
     17      30.1419      0.00000
     18      31.8279      0.00000

 k-point   236 :       0.5000    0.0469    0.5469
  band No.  band energies     occupation 
      1     -18.4794      2.00000
      2      -6.8165      2.00000
      3      -5.5765      2.00000
      4      -5.5546      2.00000
      5      -5.0879      2.00000
      6      -5.0211      2.00000
      7      -3.4102      2.00000
      8      -2.2053      2.00000
      9      -2.1400      2.00000
     10       7.4941      0.00000
     11      12.2156      0.00000
     12      13.8848      0.00000
     13      17.3475      0.00000
     14      17.8149      0.00000
     15      25.3307      0.00000
     16      29.9112      0.00000
     17      30.7965      0.00000
     18      31.7802      0.00000

 k-point   237 :       0.5000    0.0312    0.5312
  band No.  band energies     occupation 
      1     -18.4795      2.00000
      2      -6.8320      2.00000
      3      -5.5648      2.00000
      4      -5.5544      2.00000
      5      -5.1127      2.00000
      6      -5.0162      2.00000
      7      -3.3884      2.00000
      8      -2.1714      2.00000
      9      -2.1419      2.00000
     10       7.4150      0.00000
     11      12.2105      0.00000
     12      13.8941      0.00000
     13      17.5070      0.00000
     14      17.7183      0.00000
     15      25.2005      0.00000
     16      29.8968      0.00000
     17      31.4838      0.00000
     18      31.7456      0.00000

 k-point   238 :       0.5000    0.0156    0.5156
  band No.  band energies     occupation 
      1     -18.4796      2.00000
      2      -6.8414      2.00000
      3      -5.5571      2.00000
      4      -5.5544      2.00000
      5      -5.1283      2.00000
      6      -5.0134      2.00000
      7      -3.3749      2.00000
      8      -2.1506      2.00000
      9      -2.1431      2.00000
     10       7.3668      0.00000
     11      12.2074      0.00000
     12      13.8998      0.00000
     13      17.6067      0.00000
     14      17.6599      0.00000
     15      25.1187      0.00000
     16      29.8868      0.00000
     17      31.7245      0.00000
     18      32.1874      0.00000

 k-point   239 :       0.5000    0.0000    0.5000
  band No.  band energies     occupation 
      1     -18.4796      2.00000
      2      -6.8446      2.00000
      3      -5.5543      2.00000
      4      -5.5543      2.00000
      5      -5.1337      2.00000
      6      -5.0124      2.00000
      7      -3.3704      2.00000
      8      -2.1436      2.00000
      9      -2.1436      2.00000
     10       7.3506      0.00000
     11      12.2063      0.00000
     12      13.9018      0.00000
     13      17.6403      0.00000
     14      17.6403      0.00000
     15      25.0908      0.00000
     16      29.8832      0.00000
     17      31.7174      0.00000
     18      34.7802      0.00000


--------------------------------------------------------------------------------------------------------


 soft charge-density along one line, spin component           1
         0         1         2         3         4         5         6         7         8         9
 total charge-density along one line
 
 pseudopotential strength for first ion, spin component:           1
 11.571 -14.035  -0.000  -0.000  -0.000   0.000   0.000   0.000
-14.035  17.037   0.000   0.000   0.000  -0.000  -0.000  -0.000
 -0.000   0.000  -7.728  -0.000  -0.000   9.130   0.000   0.000
 -0.000   0.000  -0.000  -7.728  -0.000   0.000   9.130   0.000
 -0.000   0.000  -0.000  -0.000  -7.728   0.000   0.000   9.130
  0.000  -0.000   9.130   0.000   0.000 -10.594  -0.000  -0.000
  0.000  -0.000   0.000   9.130   0.000  -0.000 -10.594  -0.000
  0.000  -0.000   0.000   0.000   9.130  -0.000  -0.000 -10.594
 total augmentation occupancy for first ion, spin component:           1
  2.665   0.401  -0.000   0.000   0.000   0.000   0.000   0.000
  0.401   0.090  -0.000   0.000   0.000  -0.000   0.000   0.000
 -0.000  -0.000   2.192  -0.000  -0.000   0.283  -0.000  -0.000
  0.000   0.000  -0.000   2.192  -0.000  -0.000   0.283   0.000
  0.000   0.000  -0.000  -0.000   2.192   0.000  -0.000   0.283
  0.000  -0.000   0.283  -0.000   0.000   0.044  -0.000  -0.000
  0.000   0.000  -0.000   0.283  -0.000  -0.000   0.044  -0.000
  0.000   0.000  -0.000   0.000   0.283  -0.000  -0.000   0.044


------------------------ aborting loop because EDIFF is reached ----------------------------------------


 


 total charge     
 
# of ion     s       p       d       tot
----------------------------------------
  1        1.550   3.529   0.000   5.078
  2        0.446   0.536   9.958  10.940
------------------------------------------------
tot        1.996   4.064   9.958  16.018
 
    FORLOC:  cpu time    0.0088: real time    0.0105
    FORHF :  cpu time 7643.8444: real time 7645.8982
    FORNL :  cpu time    0.0938: real time    0.1942
    STRESS:  cpu time    0.3843: real time    0.3912
    FORCOR:  cpu time    0.0633: real time    0.0722
    OFIELD:  cpu time    0.0002: real time    0.0041

  FORCE on cell =-STRESS in cart. coord.  units (eV):
  Direction    XX          YY          ZZ          XY          YZ          ZX
  --------------------------------------------------------------------------------------
  Alpha Z   123.92738   123.92738   123.92738
  Ewald    -503.65015  -503.65015  -503.65015     0.00000     0.00000    -0.00000
  Hartree   214.60520   214.60520   214.60520    -0.00000    -0.00000    -0.00000
  E(xc)     -77.97478   -77.97478   -77.97478     0.00000     0.00000     0.00000
  Local      79.84103    79.84103    79.84103     0.00013     0.00013     0.00013
  n-local    45.96633    45.77686    47.23391    -1.01175     0.93163    -0.55237
  augment    31.19227    31.19227    31.19227    -0.00012    -0.00012    -0.00012
  Kinetic   204.92338   204.40957   201.12981     4.16098    -3.32839     2.09818
  Fock            NaN         NaN         NaN         NaN         NaN         NaN
  -------------------------------------------------------------------------------------
  Total           NaN         NaN         NaN         NaN         NaN         NaN
  in kB           NaN         NaN         NaN         NaN         NaN         NaN
  external pressure =         NaN kB  Pullay stress =        0.00 kB


 VOLUME and BASIS-vectors are now :
 -----------------------------------------------------------------------------
  energy-cutoff  :      520.00
  volume of cell :       22.52
      direct lattice vectors                 reciprocal lattice vectors
     0.000000000  2.241414001  2.241414001    -0.223073470  0.223073470  0.223073470
     2.241414001  0.000000000  2.241414001     0.223073470 -0.223073470  0.223073470
     2.241414001  2.241414001  0.000000000     0.223073470  0.223073470 -0.223073470

  length of vectors
     3.169838079  3.169838079  3.169838079     0.386374585  0.386374585  0.386374585


 FORCES acting on ions:
    Electron-Ion                     Ewald-Force                    Non-Local-Force
 -----------------------------------------------------------------------------------------------
   -.111E-04 -.129E-04 -.538E-05   -.398E-14 -.220E-14 0.263E-14   -.104E-16 -.694E-17 -.121E-16
   0.114E-04 0.616E-05 0.333E-05   0.399E-14 0.378E-14 0.224E-15   -.104E-16 -.867E-17 -.121E-16
 -----------------------------------------------------------------------------------------------
   0.380E-05 -.325E-05 0.149E-05   0.110E-16 0.158E-14 0.285E-14   -.208E-16 -.156E-16 -.243E-16
 
 
 POSITION                                       TOTAL-FORCE (eV/Angst)
 -----------------------------------------------------------------------------------
      3.36212      3.36212      3.36212              NaN           NaN           NaN
      0.00000      0.00000      0.00000              NaN           NaN           NaN
 -----------------------------------------------------------------------------------
    total drift:                                     NaN           NaN           NaN


--------------------------------------------------------------------------------------------------------



  FREE ENERGIE OF THE ION-ELECTRON SYSTEM (eV)
  ---------------------------------------------------
  free  energy   TOTEN  =       -11.30299380 eV

  energy  without entropy=      -11.30299380  energy(sigma->0) =      -11.30299380
 


--------------------------------------------------------------------------------------------------------


    POTLOK:  cpu time    0.2594: real time    0.4909


--------------------------------------------------------------------------------------------------------


     LOOP+:  cpu time37052.2307: real time37071.4310
    4ORBIT:  cpu time    0.0000: real time    0.0000
 


 total charge     
 
# of ion     s       p       d       tot
----------------------------------------
  1        1.550   3.529   0.000   5.078
  2        0.446   0.536   9.958  10.940
------------------------------------------------
tot        1.996   4.064   9.958  16.018
 

 total amount of memory used by VASP on root node    47548. kBytes
========================================================================

   base      :      30000. kBytes
   nonl-proj :      10329. kBytes
   fftplans  :        456. kBytes
   grid      :        203. kBytes
   one-center:         15. kBytes
   HF        :         23. kBytes
   nonlr-proj:        741. kBytes
   wavefun   :       5781. kBytes
 
  
  
 General timing and accounting informations for this job:
 ========================================================
  
                  Total CPU time used (sec):    37291.445
                            User time (sec):    37288.982
                          System time (sec):        2.465
                         Elapsed time (sec):    37312.549
  
                   Maximum memory used (kb):      287368.
                   Average memory used (kb):           0.
  
                          Minor page faults:      1365498
                          Major page faults:           74
                 Voluntary context switches:         6495
