 vasp.5.4.4.18Apr17-6-g9f103f2a35 (build Jan 10 2024 09:48:00) complex          
  
 executed on             LinuxIFC date 2024.04.21  11:25:17
 running on   64 total cores
 distrk:  each k-point on   64 cores,    1 groups
 distr:  one band on NCORES_PER_BAND=   8 cores,    8 groups


--------------------------------------------------------------------------------------------------------


 INCAR:
 POTCAR:    PAW_PBE Am 08May2007                  
 POTCAR:    PAW_PBE I 08Apr2002                   
 POTCAR:    PAW_PBE Am 08May2007                  
   VRHFIN =Am:  [Xe,5d,4f]                                                      
   LEXCH  = PE                                                                  
   EATOM  =  2269.8918 eV,  166.8323 Ry                                         
                                                                                
   TITEL  = PAW_PBE Am 08May2007                                                
   LULTRA =        F    use ultrasoft PP ?                                      
   IUNSCR =        1    unscreen: 0-lin 1-nonlin 2-no                           
   RPACOR =    2.200    partial core radius                                     
   POMASS =  243.061; ZVAL   =   17.000    mass and valenz                      
   RCORE  =    2.800    outmost cutoff radius                                   
   RWIGS  =    3.000; RWIGS  =    1.588    wigner-seitz radius (au A)           
   ENMAX  =  255.875; ENMIN  =  191.906 eV                                      
   RCLOC  =    1.605    cutoff for local pot                                    
   LCOR   =        T    correct aug charges                                     
   LPAW   =        T    paw PP                                                  
   EAUG   =  456.748                                                            
   DEXC   =    0.000                                                            
   RMAX   =    2.860    core radius for proj-oper                               
   RAUG   =    1.300    factor for augmentation sphere                          
   RDEP   =    2.971    radius for radial grids                                 
   RDEPT  =    2.409    core radius for aug-charge                              
                                                                                
   Atomic configuration                                                         
   18 entries                                                                   
     n  l   j            E        occ.                                          
     1  0  0.50   -125581.5403   2.0000                                         
     2  0  0.50    -23773.0829   2.0000                                         
     2  1  1.50    -19497.2419   6.0000                                         
     3  0  0.50     -6071.0617   2.0000                                         
     3  1  1.50     -4894.5403   6.0000                                         
     3  2  2.50     -3930.3307  10.0000                                         
     4  0  0.50     -1582.7504   2.0000                                         
     4  1  1.50     -1199.2788   6.0000                                         
     4  2  2.50      -832.7836  10.0000                                         
     4  3  3.50      -450.6929  14.0000                                         
     5  0  0.50      -362.8566   2.0000                                         
     5  1  1.50      -242.3084   6.0000                                         
     5  2  2.50      -120.3610  10.0000                                         
     6  0  0.50       -57.1306   2.0000                                         
     7  0  0.50        -4.8501   2.0000                                         
     6  1  1.50       -27.6394   6.0000                                         
     6  2  1.50        -2.9507   2.0000                                         
     5  3  2.50        -9.6255   5.0000                                         
   Description                                                                  
     l       E           TYP  RCUT    TYP  RCUT                                 
     0    -57.1306112     23  2.500                                             
     0     -4.8500595     23  2.600                                             
     1    -27.6393626     23  2.500                                             
     1     27.2116520     23  2.500                                             
     2     -2.9507198     23  2.500                                             
     2      0.4294776     23  2.500                                             
     3     -9.6255083     23  2.800                                             
     3    -10.9860909     23  2.800                                             
  local pseudopotential read in
  partial core-charges read in
  partial kinetic energy density read in
  atomic valenz-charges read in
  non local Contribution for L=           0  read in
    real space projection operators read in
  non local Contribution for L=           0  read in
    real space projection operators read in
  non local Contribution for L=           1  read in
    real space projection operators read in
  non local Contribution for L=           1  read in
    real space projection operators read in
  non local Contribution for L=           2  read in
    real space projection operators read in
  non local Contribution for L=           2  read in
    real space projection operators read in
  non local Contribution for L=           3  read in
    real space projection operators read in
  non local Contribution for L=           3  read in
    real space projection operators read in
    PAW grid and wavefunctions read in
 
   number of l-projection  operators is LMAX  =           8
   number of lm-projection operators is LMMAX =          32
 
 POTCAR:    PAW_PBE I 08Apr2002                   
   VRHFIN =I : s2p5                                                             
   LEXCH  = PE                                                                  
   EATOM  =   315.8678 eV,   23.2156 Ry                                         
                                                                                
   TITEL  = PAW_PBE I 08Apr2002                                                 
   LULTRA =        F    use ultrasoft PP ?                                      
   IUNSCR =        1    unscreen: 0-lin 1-nonlin 2-no                           
   RPACOR =    2.200    partial core radius                                     
   POMASS =  126.904; ZVAL   =    7.000    mass and valenz                      
   RCORE  =    2.300    outmost cutoff radius                                   
   RWIGS  =    2.810; RWIGS  =    1.487    wigner-seitz radius (au A)           
   ENMAX  =  175.647; ENMIN  =  131.735 eV                                      
   ICORE  =        3    local potential                                         
   LCOR   =        T    correct aug charges                                     
   LPAW   =        T    paw PP                                                  
   EAUG   =  370.139                                                            
   DEXC   =    0.000                                                            
   RMAX   =    2.359    core radius for proj-oper                               
   RAUG   =    1.300    factor for augmentation sphere                          
   RDEP   =    2.392    radius for radial grids                                 
   RDEPT  =    2.170    core radius for aug-charge                              
                                                                                
   Atomic configuration                                                         
   13 entries                                                                   
     n  l   j            E        occ.                                          
     1  0  0.50    -32976.3739   2.0000                                         
     2  0  0.50     -5094.5933   2.0000                                         
     2  1  1.50     -4572.0131   6.0000                                         
     3  0  0.50     -1028.2813   2.0000                                         
     3  1  1.50      -859.0250   6.0000                                         
     3  2  2.50      -605.7620  10.0000                                         
     4  0  0.50      -180.5540   2.0000                                         
     4  1  1.50      -127.5306   6.0000                                         
     4  2  2.50       -50.2720  10.0000                                         
     5  0  0.50       -17.4058   2.0000                                         
     5  1  0.50        -7.0851   5.0000                                         
     5  2  1.50        -7.0750   0.0000                                         
     4  3  2.50        -7.0750   0.0000                                         
   Description                                                                  
     l       E           TYP  RCUT    TYP  RCUT                                 
     0    -17.4058016     23  2.300                                             
     0    -18.7663842     23  2.300                                             
     1     -7.0850686     23  2.300                                             
     1     -4.2150896     23  2.300                                             
     2     -7.0750295     23  2.300                                             
     3     -1.3605826     23  2.300                                             
  local pseudopotential read in
  partial core-charges read in
  partial kinetic energy density read in
  atomic valenz-charges read in
  non local Contribution for L=           0  read in
    real space projection operators read in
  non local Contribution for L=           0  read in
    real space projection operators read in
  non local Contribution for L=           1  read in
    real space projection operators read in
  non local Contribution for L=           1  read in
    real space projection operators read in
  non local Contribution for L=           2  read in
    real space projection operators read in
    PAW grid and wavefunctions read in
 
   number of l-projection  operators is LMAX  =           5
   number of lm-projection operators is LMMAX =          13
 
  PAW_PBE Am 08May2007                  :
 energy of atom  1       EATOM=-2269.8918
 kinetic energy error for atom=    0.0017 (will be added to EATOM!!)
  PAW_PBE I 08Apr2002                   :
 energy of atom  2       EATOM= -315.8678
 kinetic energy error for atom=    0.0009 (will be added to EATOM!!)
 
 
 POSCAR: Am2 I6                                  
  positions in direct lattice
  velocities in cartesian coordinates
 exchange correlation table for  LEXCH =        8
   RHO(1)=    0.500       N(1)  =     2000
   RHO(2)=  100.500       N(2)  =     4000
 


--------------------------------------------------------------------------------------------------------


 ion  position               nearest neighbor table
   1  0.257  0.743  0.250-   8 3.12   8 3.12   6 3.24   6 3.24   7 3.24   7 3.24   5 3.51   4 3.51

   2  0.743  0.257  0.750-   3 3.12   3 3.12   4 3.24   5 3.24   5 3.24   4 3.24   7 3.51   6 3.51

   3  0.105  0.895  0.750-   2 3.12   2 3.12
   4  0.341  0.659  0.931-   2 3.24   2 3.24   1 3.51
   5  0.341  0.659  0.569-   2 3.24   2 3.24   1 3.51
   6  0.659  0.341  0.431-   1 3.24   1 3.24   2 3.51
   7  0.659  0.341  0.069-   1 3.24   1 3.24   2 3.51
   8  0.895  0.105  0.250-   1 3.12   1 3.12
 
  LATTYP: Found a base centered orthorhombic cell.
 ALAT       =     4.2825257791
 B/A-ratio  =     3.8311841869
 C/A-ratio  =     2.3624283673
  
  Lattice vectors:
  
 A1 = (   2.1412628895,  -8.2035725223,   0.0000000000)
 A2 = (   2.1412628895,   8.2035725223,   0.0000000000)
 A3 = (   0.0000000000,   0.0000000000,  10.1171603840)


Analysis of symmetry for initial positions (statically):
=====================================================================
 Subroutine PRICEL returns:
 Original cell was already a primitive cell.
 

 Routine SETGRP: Setting up the symmetry group for a 
 base centered orthorhombic supercell.


 Subroutine GETGRP returns: Found  8 space group operations
 (whereof  4 operations were pure point group operations)
 out of a pool of  8 trial point group operations.


The static configuration has the point symmetry C_2h.
 The point group associated with its full space group is D_2h.


Analysis of symmetry for dynamics (positions and initial velocities):
=====================================================================
 Subroutine PRICEL returns:
 Original cell was already a primitive cell.
 

 Routine SETGRP: Setting up the symmetry group for a 
 base centered orthorhombic supercell.


 Subroutine GETGRP returns: Found  8 space group operations
 (whereof  4 operations were pure point group operations)
 out of a pool of  8 trial point group operations.


The dynamic configuration has the point symmetry C_2h.
 The point group associated with its full space group is D_2h.


Analysis of structural, dynamic, and magnetic symmetry:
=====================================================================
 Subroutine PRICEL returns:
 Original cell was already a primitive cell.
 

 Routine SETGRP: Setting up the symmetry group for a 
 base centered orthorhombic supercell.


 Subroutine GETGRP returns: Found  8 space group operations
 (whereof  4 operations were pure point group operations)
 out of a pool of  8 trial point group operations.


The magnetic configuration has the point symmetry C_2h.
 The point group associated with its full space group is D_2h.


 Subroutine INISYM returns: Found  8 space group operations
 (whereof  4 operations are pure point group operations),
 and found     1 'primitive' translations

 
 
 KPOINTS: 0.040   6   6   2   26  0.040  147   11 
  k-points in reciprocal lattice
Space group operators:
 irot       det(A)        alpha          n_x          n_y          n_z        tau_x        tau_y        tau_z
    1     1.000000     0.000000     1.000000     0.000000     0.000000     0.000000     0.000000     0.000000
    2    -1.000000     0.000000     1.000000     0.000000     0.000000     0.000000     0.000000     0.000000
    3     1.000000   179.999999     1.000000     0.000000     0.000000     0.000000     0.000000     0.000000
    4    -1.000000   179.999999     1.000000     0.000000     0.000000     0.000000     0.000000     0.000000
    5     1.000000   180.000000     0.000000     0.000000     1.000000     0.000000     0.000000     0.500000
    6    -1.000000   180.000000     0.000000     0.000000     1.000000     0.000000     0.000000     0.500000
    7     1.000000   180.000000     0.000000     1.000000     0.000000     0.000000     0.000000     0.500000
    8    -1.000000   180.000000     0.000000     1.000000     0.000000     0.000000     0.000000     0.500000

 ----------------------------------------------------------------------------- 
|                                                                             |
|           W    W    AA    RRRRR   N    N  II  N    N   GGGG   !!!           |
|           W    W   A  A   R    R  NN   N  II  NN   N  G    G  !!!           |
|           W    W  A    A  R    R  N N  N  II  N N  N  G       !!!           |
|           W WW W  AAAAAA  RRRRR   N  N N  II  N  N N  G  GGG   !            |
|           WW  WW  A    A  R   R   N   NN  II  N   NN  G    G                |
|           W    W  A    A  R    R  N    N  II  N    N   GGGG   !!!           |
|                                                                             |
|      Your generating k-point grid is not commensurate to the symmetry       |
|      of the lattice.  This can cause   slow convergence with respect        |
|      to k-points for HF type calculations                                   |
|      suggested SOLUTIONS:                                                   |
|       ) if not already the case, use automatic k-point generation           |
|       ) shift your grid to Gamma (G) (e.g. required for hex or fcc lattice) |
|                                                                             |
 ----------------------------------------------------------------------------- 

 
 Subroutine IBZKPT_HF returns following result:
 ==============================================
 
 Found    219 k-points in 1st BZ
 the following    219 k-points will be used (e.g. in the exchange kernel)
 Following reciprocal coordinates:   # in IRBZ
  0.000000  0.000000  0.000000    0.01388889   1 t-inv F
  0.166667  0.000000  0.000000    0.01388889   2 t-inv F
  0.333333  0.000000  0.000000    0.01388889   3 t-inv F
  0.500000  0.000000  0.000000    0.01388889   4 t-inv F
  0.166667  0.166667  0.000000    0.01388889   5 t-inv F
  0.333333  0.166667  0.000000    0.01388889   6 t-inv F
  0.500000  0.166667  0.000000    0.01388889   7 t-inv F
 -0.333333  0.166667  0.000000    0.01388889   8 t-inv F
 -0.166667  0.166667  0.000000    0.01388889   9 t-inv F
  0.333333  0.333333  0.000000    0.01388889  10 t-inv F
  0.500000  0.333333  0.000000    0.01388889  11 t-inv F
 -0.333333  0.333333  0.000000    0.01388889  12 t-inv F
  0.500000  0.500000  0.000000    0.01388889  13 t-inv F
  0.000000  0.000000  0.500000    0.01388889  14 t-inv F
  0.166667  0.000000  0.500000    0.01388889  15 t-inv F
  0.333333  0.000000  0.500000    0.01388889  16 t-inv F
  0.500000  0.000000  0.500000    0.01388889  17 t-inv F
  0.166667  0.166667  0.500000    0.01388889  18 t-inv F
  0.333333  0.166667  0.500000    0.01388889  19 t-inv F
  0.500000  0.166667  0.500000    0.01388889  20 t-inv F
 -0.333333  0.166667  0.500000    0.01388889  21 t-inv F
 -0.166667  0.166667  0.500000    0.01388889  22 t-inv F
  0.333333  0.333333  0.500000    0.01388889  23 t-inv F
  0.500000  0.333333  0.500000    0.01388889  24 t-inv F
 -0.333333  0.333333  0.500000    0.01388889  25 t-inv F
  0.500000  0.500000  0.500000    0.01388889  26 t-inv F
  0.000000  0.000000  0.000000    0.00000000  27 t-inv F
 -0.062500  0.062500  0.000000    0.00000000  28 t-inv F
 -0.125000  0.125000  0.000000    0.00000000  29 t-inv F
 -0.187500  0.187500  0.000000    0.00000000  30 t-inv F
 -0.250000  0.250000  0.000000    0.00000000  31 t-inv F
 -0.312500  0.312500  0.000000    0.00000000  32 t-inv F
 -0.375000  0.375000  0.000000    0.00000000  33 t-inv F
 -0.437500  0.437500  0.000000    0.00000000  34 t-inv F
 -0.500000  0.500000  0.000000    0.00000000  35 t-inv F
 -0.500000  0.500000  0.000000    0.00000000  36 t-inv F
 -0.485440  0.514560  0.000000    0.00000000  37 t-inv F
 -0.470879  0.529121  0.000000    0.00000000  38 t-inv F
 -0.456319  0.543681  0.000000    0.00000000  39 t-inv F
 -0.441758  0.558242  0.000000    0.00000000  40 t-inv F
 -0.427198  0.572802  0.000000    0.00000000  41 t-inv F
 -0.412637  0.587363  0.000000    0.00000000  42 t-inv F
 -0.398077  0.601923  0.000000    0.00000000  43 t-inv F
 -0.383516  0.616484  0.000000    0.00000000  44 t-inv F
 -0.368956  0.631044  0.000000    0.00000000  45 t-inv F
 -0.354395  0.645605  0.000000    0.00000000  46 t-inv F
 -0.339835  0.660165  0.000000    0.00000000  47 t-inv F
 -0.325274  0.674726  0.000000    0.00000000  48 t-inv F
 -0.310714  0.689286  0.000000    0.00000000  49 t-inv F
 -0.296153  0.703847  0.000000    0.00000000  50 t-inv F
 -0.281593  0.718407  0.000000    0.00000000  51 t-inv F
 -0.267032  0.732968  0.000000    0.00000000  52 t-inv F
  0.267032  0.267032  0.000000    0.00000000  53 t-inv F
  0.252197  0.252197  0.000000    0.00000000  54 t-inv F
  0.237362  0.237362  0.000000    0.00000000  55 t-inv F
  0.222527  0.222527  0.000000    0.00000000  56 t-inv F
  0.207692  0.207692  0.000000    0.00000000  57 t-inv F
  0.192857  0.192857  0.000000    0.00000000  58 t-inv F
  0.178022  0.178022  0.000000    0.00000000  59 t-inv F
  0.163186  0.163186  0.000000    0.00000000  60 t-inv F
  0.148351  0.148351  0.000000    0.00000000  61 t-inv F
  0.133516  0.133516  0.000000    0.00000000  62 t-inv F
  0.118681  0.118681  0.000000    0.00000000  63 t-inv F
  0.103846  0.103846  0.000000    0.00000000  64 t-inv F
  0.089011  0.089011  0.000000    0.00000000  65 t-inv F
  0.074176  0.074176  0.000000    0.00000000  66 t-inv F
  0.059341  0.059341  0.000000    0.00000000  67 t-inv F
  0.044505  0.044505  0.000000    0.00000000  68 t-inv F
  0.029670  0.029670  0.000000    0.00000000  69 t-inv F
  0.014835  0.014835  0.000000    0.00000000  70 t-inv F
  0.000000  0.000000  0.000000    0.00000000  71 t-inv F
  0.000000  0.000000  0.000000    0.00000000  72 t-inv F
  0.000000  0.000000  0.083333    0.00000000  73 t-inv F
  0.000000  0.000000  0.166667    0.00000000  74 t-inv F
  0.000000  0.000000  0.250000    0.00000000  75 t-inv F
  0.000000  0.000000  0.333333    0.00000000  76 t-inv F
  0.000000  0.000000  0.416667    0.00000000  77 t-inv F
  0.000000  0.000000  0.500000    0.00000000  78 t-inv F
  0.000000  0.000000  0.500000    0.00000000  79 t-inv F
  0.014835  0.014835  0.500000    0.00000000  80 t-inv F
  0.029670  0.029670  0.500000    0.00000000  81 t-inv F
  0.044505  0.044505  0.500000    0.00000000  82 t-inv F
  0.059341  0.059341  0.500000    0.00000000  83 t-inv F
  0.074176  0.074176  0.500000    0.00000000  84 t-inv F
  0.089011  0.089011  0.500000    0.00000000  85 t-inv F
  0.103846  0.103846  0.500000    0.00000000  86 t-inv F
  0.118681  0.118681  0.500000    0.00000000  87 t-inv F
  0.133516  0.133516  0.500000    0.00000000  88 t-inv F
  0.148351  0.148351  0.500000    0.00000000  89 t-inv F
  0.163186  0.163186  0.500000    0.00000000  90 t-inv F
  0.178022  0.178022  0.500000    0.00000000  91 t-inv F
  0.192857  0.192857  0.500000    0.00000000  92 t-inv F
  0.207692  0.207692  0.500000    0.00000000  93 t-inv F
  0.222527  0.222527  0.500000    0.00000000  94 t-inv F
  0.237362  0.237362  0.500000    0.00000000  95 t-inv F
  0.252197  0.252197  0.500000    0.00000000  96 t-inv F
  0.267032  0.267032  0.500000    0.00000000  97 t-inv F
 -0.267032  0.732968  0.500000    0.00000000  98 t-inv F
 -0.281593  0.718407  0.500000    0.00000000  99 t-inv F
 -0.296153  0.703847  0.500000    0.00000000 100 t-inv F
 -0.310714  0.689286  0.500000    0.00000000 101 t-inv F
 -0.325274  0.674726  0.500000    0.00000000 102 t-inv F
 -0.339835  0.660165  0.500000    0.00000000 103 t-inv F
 -0.354395  0.645605  0.500000    0.00000000 104 t-inv F
 -0.368956  0.631044  0.500000    0.00000000 105 t-inv F
 -0.383516  0.616484  0.500000    0.00000000 106 t-inv F
 -0.398077  0.601923  0.500000    0.00000000 107 t-inv F
 -0.412637  0.587363  0.500000    0.00000000 108 t-inv F
 -0.427198  0.572802  0.500000    0.00000000 109 t-inv F
 -0.441758  0.558242  0.500000    0.00000000 110 t-inv F
 -0.456319  0.543681  0.500000    0.00000000 111 t-inv F
 -0.470879  0.529121  0.500000    0.00000000 112 t-inv F
 -0.485440  0.514560  0.500000    0.00000000 113 t-inv F
 -0.500000  0.500000  0.500000    0.00000000 114 t-inv F
 -0.500000  0.500000  0.500000    0.00000000 115 t-inv F
 -0.500000  0.500000  0.416667    0.00000000 116 t-inv F
 -0.500000  0.500000  0.333333    0.00000000 117 t-inv F
 -0.500000  0.500000  0.250000    0.00000000 118 t-inv F
 -0.500000  0.500000  0.166667    0.00000000 119 t-inv F
 -0.500000  0.500000  0.083333    0.00000000 120 t-inv F
 -0.500000  0.500000  0.000000    0.00000000 121 t-inv F
  0.000000  0.000000  0.000000    0.00000000 122 t-inv F
  0.000000  0.029412  0.000000    0.00000000 123 t-inv F
  0.000000  0.058824  0.000000    0.00000000 124 t-inv F
  0.000000  0.088235  0.000000    0.00000000 125 t-inv F
  0.000000  0.117647  0.000000    0.00000000 126 t-inv F
  0.000000  0.147059  0.000000    0.00000000 127 t-inv F
  0.000000  0.176471  0.000000    0.00000000 128 t-inv F
  0.000000  0.205882  0.000000    0.00000000 129 t-inv F
  0.000000  0.235294  0.000000    0.00000000 130 t-inv F
  0.000000  0.264706  0.000000    0.00000000 131 t-inv F
  0.000000  0.294118  0.000000    0.00000000 132 t-inv F
  0.000000  0.323529  0.000000    0.00000000 133 t-inv F
  0.000000  0.352941  0.000000    0.00000000 134 t-inv F
  0.000000  0.382353  0.000000    0.00000000 135 t-inv F
  0.000000  0.411765  0.000000    0.00000000 136 t-inv F
  0.000000  0.441176  0.000000    0.00000000 137 t-inv F
  0.000000  0.470588  0.000000    0.00000000 138 t-inv F
  0.000000  0.500000  0.000000    0.00000000 139 t-inv F
  0.000000  0.500000  0.000000    0.00000000 140 t-inv F
  0.000000  0.500000  0.083333    0.00000000 141 t-inv F
  0.000000  0.500000  0.166667    0.00000000 142 t-inv F
  0.000000  0.500000  0.250000    0.00000000 143 t-inv F
  0.000000  0.500000  0.333333    0.00000000 144 t-inv F
  0.000000  0.500000  0.416667    0.00000000 145 t-inv F
  0.000000  0.500000  0.500000    0.00000000 146 t-inv F
  0.000000  0.500000  0.500000    0.00000000 147 t-inv F
  0.000000  0.470588  0.500000    0.00000000 148 t-inv F
  0.000000  0.441176  0.500000    0.00000000 149 t-inv F
  0.000000  0.411765  0.500000    0.00000000 150 t-inv F
  0.000000  0.382353  0.500000    0.00000000 151 t-inv F
  0.000000  0.352941  0.500000    0.00000000 152 t-inv F
  0.000000  0.323529  0.500000    0.00000000 153 t-inv F
  0.000000  0.294118  0.500000    0.00000000 154 t-inv F
  0.000000  0.264706  0.500000    0.00000000 155 t-inv F
  0.000000  0.235294  0.500000    0.00000000 156 t-inv F
  0.000000  0.205882  0.500000    0.00000000 157 t-inv F
  0.000000  0.176471  0.500000    0.00000000 158 t-inv F
  0.000000  0.147059  0.500000    0.00000000 159 t-inv F
  0.000000  0.117647  0.500000    0.00000000 160 t-inv F
  0.000000  0.088235  0.500000    0.00000000 161 t-inv F
  0.000000  0.058824  0.500000    0.00000000 162 t-inv F
  0.000000  0.029412  0.500000    0.00000000 163 t-inv F
  0.000000  0.000000  0.500000    0.00000000 164 t-inv F
  0.000000  0.000000  0.500000    0.00000000 165 t-inv F
 -0.062500  0.062500  0.500000    0.00000000 166 t-inv F
 -0.125000  0.125000  0.500000    0.00000000 167 t-inv F
 -0.187500  0.187500  0.500000    0.00000000 168 t-inv F
 -0.250000  0.250000  0.500000    0.00000000 169 t-inv F
 -0.312500  0.312500  0.500000    0.00000000 170 t-inv F
 -0.375000  0.375000  0.500000    0.00000000 171 t-inv F
 -0.437500  0.437500  0.500000    0.00000000 172 t-inv F
 -0.500000  0.500000  0.500000    0.00000000 173 t-inv F
 -0.166667  0.000000  0.000000    0.01388889   2 t-inv F
  0.000000  0.166667  0.000000    0.01388889   2 t-inv F
  0.000000 -0.166667  0.000000    0.01388889   2 t-inv F
 -0.333333  0.000000  0.000000    0.01388889   3 t-inv F
  0.000000  0.333333  0.000000    0.01388889   3 t-inv F
  0.000000 -0.333333  0.000000    0.01388889   3 t-inv F
  0.000000  0.500000  0.000000    0.01388889   4 t-inv F
 -0.166667 -0.166667  0.000000    0.01388889   5 t-inv F
 -0.333333 -0.166667  0.000000    0.01388889   6 t-inv F
  0.166667  0.333333  0.000000    0.01388889   6 t-inv F
 -0.166667 -0.333333  0.000000    0.01388889   6 t-inv F
 -0.500000 -0.166667  0.000000    0.01388889   7 t-inv F
  0.166667  0.500000  0.000000    0.01388889   7 t-inv F
 -0.166667 -0.500000  0.000000    0.01388889   7 t-inv F
  0.333333 -0.166667  0.000000    0.01388889   8 t-inv F
  0.166667 -0.333333  0.000000    0.01388889   8 t-inv F
 -0.166667  0.333333  0.000000    0.01388889   8 t-inv F
  0.166667 -0.166667  0.000000    0.01388889   9 t-inv F
 -0.333333 -0.333333  0.000000    0.01388889  10 t-inv F
 -0.500000 -0.333333  0.000000    0.01388889  11 t-inv F
  0.333333  0.500000  0.000000    0.01388889  11 t-inv F
 -0.333333 -0.500000  0.000000    0.01388889  11 t-inv F
  0.333333 -0.333333  0.000000    0.01388889  12 t-inv F
 -0.166667  0.000000 -0.500000    0.01388889  15 t-inv F
  0.000000  0.166667 -0.500000    0.01388889  15 t-inv F
  0.000000 -0.166667  0.500000    0.01388889  15 t-inv F
 -0.333333  0.000000 -0.500000    0.01388889  16 t-inv F
  0.000000  0.333333 -0.500000    0.01388889  16 t-inv F
  0.000000 -0.333333  0.500000    0.01388889  16 t-inv F
  0.000000  0.500000 -0.500000    0.01388889  17 t-inv F
 -0.166667 -0.166667 -0.500000    0.01388889  18 t-inv F
 -0.333333 -0.166667 -0.500000    0.01388889  19 t-inv F
  0.166667  0.333333 -0.500000    0.01388889  19 t-inv F
 -0.166667 -0.333333  0.500000    0.01388889  19 t-inv F
 -0.500000 -0.166667 -0.500000    0.01388889  20 t-inv F
  0.166667  0.500000 -0.500000    0.01388889  20 t-inv F
 -0.166667 -0.500000  0.500000    0.01388889  20 t-inv F
  0.333333 -0.166667 -0.500000    0.01388889  21 t-inv F
  0.166667 -0.333333 -0.500000    0.01388889  21 t-inv F
 -0.166667  0.333333  0.500000    0.01388889  21 t-inv F
  0.166667 -0.166667 -0.500000    0.01388889  22 t-inv F
 -0.333333 -0.333333 -0.500000    0.01388889  23 t-inv F
 -0.500000 -0.333333 -0.500000    0.01388889  24 t-inv F
  0.333333  0.500000 -0.500000    0.01388889  24 t-inv F
 -0.333333 -0.500000  0.500000    0.01388889  24 t-inv F
  0.333333 -0.333333 -0.500000    0.01388889  25 t-inv F

 ----------------------------------------------------------------------------- 
|                                                                             |
|           W    W    AA    RRRRR   N    N  II  N    N   GGGG   !!!           |
|           W    W   A  A   R    R  NN   N  II  NN   N  G    G  !!!           |
|           W    W  A    A  R    R  N N  N  II  N N  N  G       !!!           |
|           W WW W  AAAAAA  RRRRR   N  N N  II  N  N N  G  GGG   !            |
|           WW  WW  A    A  R   R   N   NN  II  N   NN  G    G                |
|           W    W  A    A  R    R  N    N  II  N    N   GGGG   !!!           |
|                                                                             |
|      The number of bands has been changed from the values supplied          |
|      in the INCAR file. This is a result of running the parallel version.   |
|      The orbitals not found in the WAVECAR file will be initialized with    |
|      random numbers, which is usually adequate. For correlated              |
|      calculations, however, you should redo the groundstate calculation.    |
|      I found NBANDS    =      140  now  NBANDS  =     144                   |
|                                                                             |
 ----------------------------------------------------------------------------- 



--------------------------------------------------------------------------------------------------------




 Dimension of arrays:
   k-points           NKPTS =    173   k-points in BZ     NKDIM =    219   number of bands    NBANDS=    144
   number of dos      NEDOS =    301   number of ions     NIONS =      8
   non local maximal  LDIM  =      8   non local SUM 2l+1 LMDIM =     32
   total plane-waves  NPLWV = 327680
   max r-space proj   IRMAX =      1   max aug-charges    IRDMAX= 556706
   dimension x,y,z NGX =    64 NGY =   64 NGZ =   80
   dimension x,y,z NGXF=   128 NGYF=  128 NGZF=  160
   support grid    NGXF=   256 NGYF=  256 NGZF=  320
   ions per type =               2   6
   NGX,Y,Z   is equivalent  to a cutoff of  12.55, 12.55, 13.15 a.u.
   NGXF,Y,Z  is equivalent  to a cutoff of  25.10, 25.10, 26.29 a.u.

 SYSTEM =  matgen-band                             
 POSCAR =  Am2 I6                                  

 Startparameter for this run:
   NWRITE =      2    write-flag & timer
   PREC   = accura    normal or accurate (medium, high low for compatibility)
   ISTART =      1    job   : 0-new  1-cont  2-samecut
   ICHARG =     11    charge: 1-file 2-atom 10-const
   ISPIN  =      2    spin polarized calculation?
   LNONCOLLINEAR =      F non collinear calculations
   LSORBIT =      F    spin-orbit coupling
   INIWAV =      1    electr: 0-lowe 1-rand  2-diag
   LASPH  =      F    aspherical Exc in radial PAW
   METAGGA=      F    non-selfconsistent MetaGGA calc.

 Electronic Relaxation 1
   ENCUT  =  520.0 eV  38.22 Ry    6.18 a.u.  15.76 15.76 18.81*2*pi/ulx,y,z
   ENINI  =  520.0     initial cutoff
   ENAUG  =  456.7 eV  augmentation charge cutoff
   NELM   =    140;   NELMIN=  6; NELMDL=  0     # of ELM steps 
   EDIFF  = 0.1E-03   stopping-criterion for ELM
   LREAL  =      F    real-space projection
   NLSPLINE    = F    spline interpolate recip. space projectors
   LCOMPAT=      F    compatible to vasp.4.4
   GGA_COMPAT  = T    GGA compatible to vasp.4.4-vasp.4.6
   LMAXPAW     = -100 max onsite density
   LMAXMIX     =    2 max onsite mixed and CHGCAR
   VOSKOWN=      0    Vosko Wilk Nusair interpolation
   ROPT   =    0.00000   0.00000
 Ionic relaxation
   EDIFFG = -.1E-01   stopping-criterion for IOM
   NSW    =      0    number of steps for IOM
   NBLOCK =      1;   KBLOCK =      1    inner block; outer block 
   IBRION =     -1    ionic relax: 0-MD 1-quasi-New 2-CG
   NFREE  =      0    steps in history (QN), initial steepest desc. (CG)
   ISIF   =      0    stress and relaxation
   IWAVPR =     10    prediction:  0-non 1-charg 2-wave 3-comb
   ISYM   =      3    0-nonsym 1-usesym 2-fastsym
   LCORR  =      T    Harris-Foulkes like correction to forces

   POTIM  = 0.0500    time-step for ionic-motion
   TEIN   =    0.0    initial temperature
   TEBEG  =    0.0;   TEEND  =   0.0 temperature during run
   SMASS  =  -3.00    Nose mass-parameter (am)
   estimated Nose-frequenzy (Omega)   =  0.10E-29 period in steps =****** mass=  -0.164E-26a.u.
   SCALEE = 1.0000    scale energy and forces
   NPACO  =    256;   APACO  = 16.0  distance and # of slots for P.C.
   PSTRESS=    0.0 pullay stress

  Mass of Ions in am
   POMASS = 243.06126.90
  Ionic Valenz
   ZVAL   =  17.00  7.00
  Atomic Wigner-Seitz radii
   RWIGS  =  -1.00 -1.00
  virtual crystal weights 
   VCA    =   1.00  1.00
   NELECT =      76.0000    total number of electrons
   NUPDOWN=      -1.0000    fix difference up-down

 DOS related values:
   EMIN   =  10.00;   EMAX   =-10.00  energy-range for DOS
   EFERMI =   0.00
   ISMEAR =     0;   SIGMA  =   0.05  broadening in eV -4-tet -1-fermi 0-gaus

 Electronic relaxation 2 (details)
   IALGO  =     53    algorithm
   LDIAG  =      T    sub-space diagonalisation (order eigenvalues)
   LSUBROT=      F    optimize rotation matrix (better conditioning)
   TURBO    =      0    0=normal 1=particle mesh
   IRESTART =      0    0=no restart 2=restart with 2 vectors
   NREBOOT  =      0    no. of reboots
   NMIN     =      0    reboot dimension
   EREF     =   0.00    reference energy to select bands
   IMIX   =      4    mixing-type and parameters
     AMIX     =   0.10;   BMIX     =  1.20
     AMIX_MAG =   0.40;   BMIX_MAG =  1.20
     AMIN     =   0.10
     WC   =   100.;   INIMIX=   1;  MIXPRE=   1;  MAXMIX= -45

 Intra band minimization:
   WEIMIN = 0.0000     energy-eigenvalue tresh-hold
   EBREAK =  0.17E-06  absolut break condition
   DEPER  =   0.30     relativ break condition  

   TIME   =   0.40     timestep for ELM

  volume/ion in A,a.u.               =      44.43       299.83
  Fermi-wavevector in a.u.,A,eV,Ry     =   0.978946  1.849940 13.038948  0.958336
  Thomas-Fermi vector in A             =   2.109761
 
 Write flags
   LWAVE        =      F    write WAVECAR
   LDOWNSAMPLE  =      F    k-point downsampling of WAVECAR
   LCHARG       =      T    write CHGCAR
   LVTOT        =      F    write LOCPOT, total local potential
   LVHAR        =      F    write LOCPOT, Hartree potential only
   LELF         =      F    write electronic localiz. function (ELF)
   LORBIT       =     11    0 simple, 1 ext, 2 COOP (PROOUT), +10 PAW based schemes


 Dipole corrections
   LMONO  =      F    monopole corrections only (constant potential shift)
   LDIPOL =      F    correct potential (dipole corrections)
   IDIPOL =      0    1-x, 2-y, 3-z, 4-all directions 
   EPSILON=  1.0000000 bulk dielectric constant

 Exchange correlation treatment:
   GGA     =    --    GGA type
   LEXCH   =     8    internal setting for exchange type
   VOSKOWN=      0    Vosko Wilk Nusair interpolation
   EXXOEP  =     0    0=HF, 1=EXX-LHF (local Hartree Fock) 2=EXX OEP
   LHFCALC =     T    Hartree Fock is set to
   LSYMGRAD=     F    symmetrize gradient (conserves proper symmetry)
   PRECFOCK=normal    Normal, Fast or Accurate (Low or Medium for compatibility)
   LRHFCALC=     F    long range Hartree Fock
   LRSCOR  =     F    long range correlation only (use DFT for short range part)
   LTHOMAS =     F    Thomas Fermi screening in HF
   LMODELHF=     F    short range full HF, long range fraction AEXX
   ENCUT4O =  -1.0   cutoff for four orbital integrals eV
   LMAXFOCK=     4    L truncation for augmentation on plane wave grid
   LMAXFOCKAE=  -1    L truncation for all-electron charge restoration on plane wave grid
   NMAXFOCKAE=   1    number of basis functions for all-electron charge restoration
   LFOCKAEDFT=     F  apply the AE augmentation even for DFT
   NKREDX  =     1    reduce k-point grid by
   NKREDY  =     1    reduce k-point grid by
   NKREDZ  =     1    reduce k-point grid by
   SHIFTRED=     F    shift reduced grid of Gamma
   HFKIDENT=     F    idential grid for each k-point
   ODDONLY =     F    use only odd q-grid points
   EVENONLY=     F    use only even q-grid points
   HFALPHA =   -1.0000 decay constant for conv. correction
   MCALPHA =    0.0000 extent of test-charge in conv. correction in multipole expansion
   AEXX    =    0.2500 exact exchange contribution
   HFSCREEN=    0.2000 screening length (either q_TF or 0.3 A-1)
   HFSCREENC=   0.2000 screening length for correlation (either q_TF or 0.3 A-1)
   HFRCUT  =    0.0000 spherical cutoff for potential kernel
   ALDAX   =    0.7500 LDA exchange part
   AGGAX   =    0.7500 GGA exchange part
   ALDAC   =    1.0000 LDA correlation
   AGGAC   =    1.0000 GGA correlation
   ENCUTFOCK=  -1.0 apply spherical cutoff to Coloumb kernel
   NBANDSGWLOW=     1    first orbital included in HF term
   NBLOCK_FOCK=    64    blocking factor in FOCK_ACC
 Linear response parameters
   LEPSILON=     F    determine dielectric tensor
   LRPA    =     F    only Hartree local field effects (RPA)
   LNABLA  =     F    use nabla operator in PAW spheres
   LVEL    =     F    velocity operator in full k-point grid
   LINTERFAST=   F  fast interpolation
   KINTER  =     0    interpolate to denser k-point grid
   CSHIFT  =0.1000    complex shift for real part using Kramers Kronig
   OMEGAMAX=  -1.0    maximum frequency
   DEG_THRESHOLD= 0.2000000E-02 threshold for treating states as degnerate
   RTIME   =   -0.100 relaxation time in fs
  (WPLASMAI=    0.000 imaginary part of plasma frequency in eV, 0.658/RTIME)
   DFIELD  = 0.0000000 0.0000000 0.0000000 field for delta impulse in time
 
 Orbital magnetization related:
   ORBITALMAG=     F  switch on orbital magnetization
   LCHIMAG   =     F  perturbation theory with respect to B field
   DQ        =  0.001000  dq finite difference perturbation B field
   LLRAUG    =     F  two centre corrections for induced B field



--------------------------------------------------------------------------------------------------------


 Static calculation
 charge density and potential remain constant during run
 spin polarized calculation
 Conjugate gradient for all bands (Freysoldt, et al. PRB 79, 241103 (2009))
 perform sub-space diagonalisation
    before iterative eigenvector-optimisation
 no mixing
 using additional bands          106
 reciprocal scheme for non local part
 use partial core corrections
 calculate Harris-corrections to forces 
   (improved forces if not selfconsistent)
 use gradient corrections 
 WARNING: stress and forces are not correct
  (second derivative of E(xc) not defined)
 use of overlap-Matrix (Vanderbilt PP)
 Gauss-broadening in eV      SIGMA  =   0.05


--------------------------------------------------------------------------------------------------------


  energy-cutoff  :      520.00
  volume of cell :      355.44
      direct lattice vectors                 reciprocal lattice vectors
     2.141262890 -8.203572522  0.000000000     0.233507059 -0.060949056  0.000000000
     2.141262890  8.203572522  0.000000000     0.233507059  0.060949056  0.000000000
     0.000000000  0.000000000 10.117160384     0.000000000  0.000000000  0.098841964

  length of vectors
     8.478420188  8.478420188 10.117160384     0.241330342  0.241330342  0.098841964


 
 old parameters found on file WAVECAR:
  energy-cutoff  :      520.00
  volume of cell :      355.44
      direct lattice vectors                 reciprocal lattice vectors
     2.141262890 -8.203572522  0.000000000     0.233507059 -0.060949056  0.000000000
     2.141262890  8.203572522  0.000000000     0.233507059  0.060949056  0.000000000
     0.000000000  0.000000000 10.117160384     0.000000000  0.000000000  0.098841964

  length of vectors

 
 k-points in units of 2pi/SCALE and weight: 0.040   6   6   2   26  0.040  147   11 
   0.00000000  0.00000000  0.00000000       0.014
   0.03891784 -0.01015818  0.00000000       0.056
   0.07783569 -0.02031635  0.00000000       0.056
   0.11675353 -0.03047453  0.00000000       0.028
   0.07783569  0.00000000  0.00000000       0.028
   0.11675353 -0.01015818  0.00000000       0.056
   0.15567137 -0.02031635  0.00000000       0.056
  -0.03891784  0.03047453  0.00000000       0.056
   0.00000000  0.02031635  0.00000000       0.028
   0.15567137  0.00000000  0.00000000       0.028
   0.19458922 -0.01015818  0.00000000       0.056
   0.00000000  0.04063270  0.00000000       0.028
   0.23350706  0.00000000  0.00000000       0.014
   0.00000000  0.00000000  0.04942098       0.014
   0.03891784 -0.01015818  0.04942098       0.056
   0.07783569 -0.02031635  0.04942098       0.056
   0.11675353 -0.03047453  0.04942098       0.028
   0.07783569  0.00000000  0.04942098       0.028
   0.11675353 -0.01015818  0.04942098       0.056
   0.15567137 -0.02031635  0.04942098       0.056
  -0.03891784  0.03047453  0.04942098       0.056
   0.00000000  0.02031635  0.04942098       0.028
   0.15567137  0.00000000  0.04942098       0.028
   0.19458922 -0.01015818  0.04942098       0.056
   0.00000000  0.04063270  0.04942098       0.028
   0.23350706  0.00000000  0.04942098       0.014
   0.00000000  0.00000000  0.00000000       0.000
   0.00000000  0.00761863  0.00000000       0.000
   0.00000000  0.01523726  0.00000000       0.000
   0.00000000  0.02285590  0.00000000       0.000
   0.00000000  0.03047453  0.00000000       0.000
   0.00000000  0.03809316  0.00000000       0.000
   0.00000000  0.04571179  0.00000000       0.000
   0.00000000  0.05333042  0.00000000       0.000
   0.00000000  0.06094906  0.00000000       0.000
   0.00000000  0.06094906  0.00000000       0.000
   0.00679995  0.06094906  0.00000000       0.000
   0.01359990  0.06094906  0.00000000       0.000
   0.02039985  0.06094906  0.00000000       0.000
   0.02719980  0.06094906  0.00000000       0.000
   0.03399975  0.06094906  0.00000000       0.000
   0.04079970  0.06094906  0.00000000       0.000
   0.04759965  0.06094906  0.00000000       0.000
   0.05439960  0.06094906  0.00000000       0.000
   0.06119955  0.06094906  0.00000000       0.000
   0.06799950  0.06094906  0.00000000       0.000
   0.07479945  0.06094906  0.00000000       0.000
   0.08159939  0.06094906  0.00000000       0.000
   0.08839934  0.06094906  0.00000000       0.000
   0.09519929  0.06094906  0.00000000       0.000
   0.10199924  0.06094906  0.00000000       0.000
   0.10879919  0.06094906  0.00000000       0.000
   0.12470787  0.00000000  0.00000000       0.000
   0.11777965  0.00000000  0.00000000       0.000
   0.11085144  0.00000000  0.00000000       0.000
   0.10392322  0.00000000  0.00000000       0.000
   0.09699501  0.00000000  0.00000000       0.000
   0.09006679  0.00000000  0.00000000       0.000
   0.08313858  0.00000000  0.00000000       0.000
   0.07621036  0.00000000  0.00000000       0.000
   0.06928215  0.00000000  0.00000000       0.000
   0.06235393  0.00000000  0.00000000       0.000
   0.05542572  0.00000000  0.00000000       0.000
   0.04849750  0.00000000  0.00000000       0.000
   0.04156929  0.00000000  0.00000000       0.000
   0.03464107  0.00000000  0.00000000       0.000
   0.02771286  0.00000000  0.00000000       0.000
   0.02078464  0.00000000  0.00000000       0.000
   0.01385643  0.00000000  0.00000000       0.000
   0.00692821  0.00000000  0.00000000       0.000
   0.00000000  0.00000000  0.00000000       0.000
   0.00000000  0.00000000  0.00000000       0.000
   0.00000000  0.00000000  0.00823683       0.000
   0.00000000  0.00000000  0.01647366       0.000
   0.00000000  0.00000000  0.02471049       0.000
   0.00000000  0.00000000  0.03294732       0.000
   0.00000000  0.00000000  0.04118415       0.000
   0.00000000  0.00000000  0.04942098       0.000
   0.00000000  0.00000000  0.04942098       0.000
   0.00692821  0.00000000  0.04942098       0.000
   0.01385643  0.00000000  0.04942098       0.000
   0.02078464  0.00000000  0.04942098       0.000
   0.02771286  0.00000000  0.04942098       0.000
   0.03464107  0.00000000  0.04942098       0.000
   0.04156929  0.00000000  0.04942098       0.000
   0.04849750  0.00000000  0.04942098       0.000
   0.05542572  0.00000000  0.04942098       0.000
   0.06235393  0.00000000  0.04942098       0.000
   0.06928215  0.00000000  0.04942098       0.000
   0.07621036  0.00000000  0.04942098       0.000
   0.08313858  0.00000000  0.04942098       0.000
   0.09006679  0.00000000  0.04942098       0.000
   0.09699501  0.00000000  0.04942098       0.000
   0.10392322  0.00000000  0.04942098       0.000
   0.11085144  0.00000000  0.04942098       0.000
   0.11777965  0.00000000  0.04942098       0.000
   0.12470787  0.00000000  0.04942098       0.000
   0.10879919  0.06094906  0.04942098       0.000
   0.10199924  0.06094906  0.04942098       0.000
   0.09519929  0.06094906  0.04942098       0.000
   0.08839934  0.06094906  0.04942098       0.000
   0.08159939  0.06094906  0.04942098       0.000
   0.07479945  0.06094906  0.04942098       0.000
   0.06799950  0.06094906  0.04942098       0.000
   0.06119955  0.06094906  0.04942098       0.000
   0.05439960  0.06094906  0.04942098       0.000
   0.04759965  0.06094906  0.04942098       0.000
   0.04079970  0.06094906  0.04942098       0.000
   0.03399975  0.06094906  0.04942098       0.000
   0.02719980  0.06094906  0.04942098       0.000
   0.02039985  0.06094906  0.04942098       0.000
   0.01359990  0.06094906  0.04942098       0.000
   0.00679995  0.06094906  0.04942098       0.000
   0.00000000  0.06094906  0.04942098       0.000
   0.00000000  0.06094906  0.04942098       0.000
   0.00000000  0.06094906  0.04118415       0.000
   0.00000000  0.06094906  0.03294732       0.000
   0.00000000  0.06094906  0.02471049       0.000
   0.00000000  0.06094906  0.01647366       0.000
   0.00000000  0.06094906  0.00823683       0.000
   0.00000000  0.06094906  0.00000000       0.000
   0.00000000  0.00000000  0.00000000       0.000
   0.00686785  0.00179262  0.00000000       0.000
   0.01373571  0.00358524  0.00000000       0.000
   0.02060356  0.00537786  0.00000000       0.000
   0.02747142  0.00717048  0.00000000       0.000
   0.03433927  0.00896310  0.00000000       0.000
   0.04120713  0.01075572  0.00000000       0.000
   0.04807498  0.01254834  0.00000000       0.000
   0.05494284  0.01434095  0.00000000       0.000
   0.06181069  0.01613357  0.00000000       0.000
   0.06867855  0.01792619  0.00000000       0.000
   0.07554640  0.01971881  0.00000000       0.000
   0.08241426  0.02151143  0.00000000       0.000
   0.08928211  0.02330405  0.00000000       0.000
   0.09614997  0.02509667  0.00000000       0.000
   0.10301782  0.02688929  0.00000000       0.000
   0.10988567  0.02868191  0.00000000       0.000
   0.11675353  0.03047453  0.00000000       0.000
   0.11675353  0.03047453  0.00000000       0.000
   0.11675353  0.03047453  0.00823683       0.000
   0.11675353  0.03047453  0.01647366       0.000
   0.11675353  0.03047453  0.02471049       0.000
   0.11675353  0.03047453  0.03294732       0.000
   0.11675353  0.03047453  0.04118415       0.000
   0.11675353  0.03047453  0.04942098       0.000
   0.11675353  0.03047453  0.04942098       0.000
   0.10988567  0.02868191  0.04942098       0.000
   0.10301782  0.02688929  0.04942098       0.000
   0.09614997  0.02509667  0.04942098       0.000
   0.08928211  0.02330405  0.04942098       0.000
   0.08241426  0.02151143  0.04942098       0.000
   0.07554640  0.01971881  0.04942098       0.000
   0.06867855  0.01792619  0.04942098       0.000
   0.06181069  0.01613357  0.04942098       0.000
   0.05494284  0.01434095  0.04942098       0.000
   0.04807498  0.01254834  0.04942098       0.000
   0.04120713  0.01075572  0.04942098       0.000
   0.03433927  0.00896310  0.04942098       0.000
   0.02747142  0.00717048  0.04942098       0.000
   0.02060356  0.00537786  0.04942098       0.000
   0.01373571  0.00358524  0.04942098       0.000
   0.00686785  0.00179262  0.04942098       0.000
   0.00000000  0.00000000  0.04942098       0.000
   0.00000000  0.00000000  0.04942098       0.000
   0.00000000  0.00761863  0.04942098       0.000
   0.00000000  0.01523726  0.04942098       0.000
   0.00000000  0.02285590  0.04942098       0.000
   0.00000000  0.03047453  0.04942098       0.000
   0.00000000  0.03809316  0.04942098       0.000
   0.00000000  0.04571179  0.04942098       0.000
   0.00000000  0.05333042  0.04942098       0.000
   0.00000000  0.06094906  0.04942098       0.000
 
 k-points in reciprocal lattice and weights: 0.040   6   6   2   26  0.040  147   11 
   0.00000000  0.00000000  0.00000000       0.014
   0.16666667  0.00000000  0.00000000       0.056
   0.33333333  0.00000000  0.00000000       0.056
   0.50000000  0.00000000  0.00000000       0.028
   0.16666667  0.16666667  0.00000000       0.028
   0.33333333  0.16666667  0.00000000       0.056
   0.50000000  0.16666667  0.00000000       0.056
  -0.33333333  0.16666667  0.00000000       0.056
  -0.16666667  0.16666667  0.00000000       0.028
   0.33333333  0.33333333  0.00000000       0.028
   0.50000000  0.33333333  0.00000000       0.056
  -0.33333333  0.33333333  0.00000000       0.028
   0.50000000  0.50000000  0.00000000       0.014
   0.00000000  0.00000000  0.50000000       0.014
   0.16666667  0.00000000  0.50000000       0.056
   0.33333333  0.00000000  0.50000000       0.056
   0.50000000  0.00000000  0.50000000       0.028
   0.16666667  0.16666667  0.50000000       0.028
   0.33333333  0.16666667  0.50000000       0.056
   0.50000000  0.16666667  0.50000000       0.056
  -0.33333333  0.16666667  0.50000000       0.056
  -0.16666667  0.16666667  0.50000000       0.028
   0.33333333  0.33333333  0.50000000       0.028
   0.50000000  0.33333333  0.50000000       0.056
  -0.33333333  0.33333333  0.50000000       0.028
   0.50000000  0.50000000  0.50000000       0.014
   0.00000000  0.00000000  0.00000000       0.000
  -0.06250000  0.06250000  0.00000000       0.000
  -0.12500000  0.12500000  0.00000000       0.000
  -0.18750000  0.18750000  0.00000000       0.000
  -0.25000000  0.25000000  0.00000000       0.000
  -0.31250000  0.31250000  0.00000000       0.000
  -0.37500000  0.37500000  0.00000000       0.000
  -0.43750000  0.43750000  0.00000000       0.000
  -0.50000000  0.50000000  0.00000000       0.000
  -0.50000000  0.50000000  0.00000000       0.000
  -0.48543952  0.51456048  0.00000000       0.000
  -0.47087904  0.52912096  0.00000000       0.000
  -0.45631856  0.54368144  0.00000000       0.000
  -0.44175808  0.55824192  0.00000000       0.000
  -0.42719760  0.57280240  0.00000000       0.000
  -0.41263712  0.58736288  0.00000000       0.000
  -0.39807664  0.60192336  0.00000000       0.000
  -0.38351616  0.61648384  0.00000000       0.000
  -0.36895568  0.63104432  0.00000000       0.000
  -0.35439520  0.64560480  0.00000000       0.000
  -0.33983472  0.66016528  0.00000000       0.000
  -0.32527424  0.67472576  0.00000000       0.000
  -0.31071376  0.68928624  0.00000000       0.000
  -0.29615328  0.70384672  0.00000000       0.000
  -0.28159281  0.71840719  0.00000000       0.000
  -0.26703233  0.73296767  0.00000000       0.000
   0.26703233  0.26703233  0.00000000       0.000
   0.25219720  0.25219720  0.00000000       0.000
   0.23736207  0.23736207  0.00000000       0.000
   0.22252694  0.22252694  0.00000000       0.000
   0.20769181  0.20769181  0.00000000       0.000
   0.19285668  0.19285668  0.00000000       0.000
   0.17802155  0.17802155  0.00000000       0.000
   0.16318642  0.16318642  0.00000000       0.000
   0.14835129  0.14835129  0.00000000       0.000
   0.13351616  0.13351616  0.00000000       0.000
   0.11868103  0.11868103  0.00000000       0.000
   0.10384590  0.10384590  0.00000000       0.000
   0.08901078  0.08901078  0.00000000       0.000
   0.07417565  0.07417565  0.00000000       0.000
   0.05934052  0.05934052  0.00000000       0.000
   0.04450539  0.04450539  0.00000000       0.000
   0.02967026  0.02967026  0.00000000       0.000
   0.01483513  0.01483513  0.00000000       0.000
   0.00000000  0.00000000  0.00000000       0.000
   0.00000000  0.00000000  0.00000000       0.000
   0.00000000  0.00000000  0.08333333       0.000
   0.00000000  0.00000000  0.16666667       0.000
   0.00000000  0.00000000  0.25000000       0.000
   0.00000000  0.00000000  0.33333333       0.000
   0.00000000  0.00000000  0.41666667       0.000
   0.00000000  0.00000000  0.50000000       0.000
   0.00000000  0.00000000  0.50000000       0.000
   0.01483513  0.01483513  0.50000000       0.000
   0.02967026  0.02967026  0.50000000       0.000
   0.04450539  0.04450539  0.50000000       0.000
   0.05934052  0.05934052  0.50000000       0.000
   0.07417565  0.07417565  0.50000000       0.000
   0.08901078  0.08901078  0.50000000       0.000
   0.10384590  0.10384590  0.50000000       0.000
   0.11868103  0.11868103  0.50000000       0.000
   0.13351616  0.13351616  0.50000000       0.000
   0.14835129  0.14835129  0.50000000       0.000
   0.16318642  0.16318642  0.50000000       0.000
   0.17802155  0.17802155  0.50000000       0.000
   0.19285668  0.19285668  0.50000000       0.000
   0.20769181  0.20769181  0.50000000       0.000
   0.22252694  0.22252694  0.50000000       0.000
   0.23736207  0.23736207  0.50000000       0.000
   0.25219720  0.25219720  0.50000000       0.000
   0.26703233  0.26703233  0.50000000       0.000
  -0.26703233  0.73296767  0.50000000       0.000
  -0.28159281  0.71840719  0.50000000       0.000
  -0.29615328  0.70384672  0.50000000       0.000
  -0.31071376  0.68928624  0.50000000       0.000
  -0.32527424  0.67472576  0.50000000       0.000
  -0.33983472  0.66016528  0.50000000       0.000
  -0.35439520  0.64560480  0.50000000       0.000
  -0.36895568  0.63104432  0.50000000       0.000
  -0.38351616  0.61648384  0.50000000       0.000
  -0.39807664  0.60192336  0.50000000       0.000
  -0.41263712  0.58736288  0.50000000       0.000
  -0.42719760  0.57280240  0.50000000       0.000
  -0.44175808  0.55824192  0.50000000       0.000
  -0.45631856  0.54368144  0.50000000       0.000
  -0.47087904  0.52912096  0.50000000       0.000
  -0.48543952  0.51456048  0.50000000       0.000
  -0.50000000  0.50000000  0.50000000       0.000
  -0.50000000  0.50000000  0.50000000       0.000
  -0.50000000  0.50000000  0.41666667       0.000
  -0.50000000  0.50000000  0.33333333       0.000
  -0.50000000  0.50000000  0.25000000       0.000
  -0.50000000  0.50000000  0.16666667       0.000
  -0.50000000  0.50000000  0.08333333       0.000
  -0.50000000  0.50000000  0.00000000       0.000
   0.00000000  0.00000000  0.00000000       0.000
   0.00000000  0.02941176  0.00000000       0.000
   0.00000000  0.05882353  0.00000000       0.000
   0.00000000  0.08823529  0.00000000       0.000
   0.00000000  0.11764706  0.00000000       0.000
   0.00000000  0.14705882  0.00000000       0.000
   0.00000000  0.17647059  0.00000000       0.000
   0.00000000  0.20588235  0.00000000       0.000
   0.00000000  0.23529412  0.00000000       0.000
   0.00000000  0.26470588  0.00000000       0.000
   0.00000000  0.29411765  0.00000000       0.000
   0.00000000  0.32352941  0.00000000       0.000
   0.00000000  0.35294118  0.00000000       0.000
   0.00000000  0.38235294  0.00000000       0.000
   0.00000000  0.41176471  0.00000000       0.000
   0.00000000  0.44117647  0.00000000       0.000
   0.00000000  0.47058824  0.00000000       0.000
   0.00000000  0.50000000  0.00000000       0.000
   0.00000000  0.50000000  0.00000000       0.000
   0.00000000  0.50000000  0.08333333       0.000
   0.00000000  0.50000000  0.16666667       0.000
   0.00000000  0.50000000  0.25000000       0.000
   0.00000000  0.50000000  0.33333333       0.000
   0.00000000  0.50000000  0.41666667       0.000
   0.00000000  0.50000000  0.50000000       0.000
   0.00000000  0.50000000  0.50000000       0.000
   0.00000000  0.47058824  0.50000000       0.000
   0.00000000  0.44117647  0.50000000       0.000
   0.00000000  0.41176471  0.50000000       0.000
   0.00000000  0.38235294  0.50000000       0.000
   0.00000000  0.35294118  0.50000000       0.000
   0.00000000  0.32352941  0.50000000       0.000
   0.00000000  0.29411765  0.50000000       0.000
   0.00000000  0.26470588  0.50000000       0.000
   0.00000000  0.23529412  0.50000000       0.000
   0.00000000  0.20588235  0.50000000       0.000
   0.00000000  0.17647059  0.50000000       0.000
   0.00000000  0.14705882  0.50000000       0.000
   0.00000000  0.11764706  0.50000000       0.000
   0.00000000  0.08823529  0.50000000       0.000
   0.00000000  0.05882353  0.50000000       0.000
   0.00000000  0.02941176  0.50000000       0.000
   0.00000000  0.00000000  0.50000000       0.000
   0.00000000  0.00000000  0.50000000       0.000
  -0.06250000  0.06250000  0.50000000       0.000
  -0.12500000  0.12500000  0.50000000       0.000
  -0.18750000  0.18750000  0.50000000       0.000
  -0.25000000  0.25000000  0.50000000       0.000
  -0.31250000  0.31250000  0.50000000       0.000
  -0.37500000  0.37500000  0.50000000       0.000
  -0.43750000  0.43750000  0.50000000       0.000
  -0.50000000  0.50000000  0.50000000       0.000
 
 position of ions in fractional coordinates (direct lattice) 
   0.25696246  0.74303754  0.25000000
   0.74303754  0.25696246  0.75000000
   0.10470212  0.89529788  0.75000000
   0.34080570  0.65919430  0.93129521
   0.34080570  0.65919430  0.56870479
   0.65919430  0.34080570  0.43129521
   0.65919430  0.34080570  0.06870479
   0.89529788  0.10470212  0.25000000
 
 position of ions in cartesian coordinates  (Angst):
   2.14126289  3.98755225  2.52929010
   2.14126289 -3.98755225  7.58787029
   2.14126289  6.48570958  7.58787029
   2.14126289  2.61192405  9.42206301
   2.14126289  2.61192405  5.75367756
   2.14126289 -2.61192405  4.36348282
   2.14126289 -2.61192405  0.69509737
   2.14126289 -6.48570958  2.52929010
 


--------------------------------------------------------------------------------------------------------


 k-point  1 :   0.0000 0.0000 0.0000  plane waves:    9541
 k-point  2 :   0.1667 0.0000 0.0000  plane waves:    9579
 k-point  3 :   0.3333 0.0000 0.0000  plane waves:    9579
 k-point  4 :   0.5000 0.0000 0.0000  plane waves:    9594
 k-point  5 :   0.1667 0.1667 0.0000  plane waves:    9582
 k-point  6 :   0.3333 0.1667 0.0000  plane waves:    9583
 k-point  7 :   0.5000 0.1667 0.0000  plane waves:    9593
 k-point  8 :  -0.3333 0.1667 0.0000  plane waves:    9548
 k-point  9 :  -0.1667 0.1667 0.0000  plane waves:    9555
 k-point 10 :   0.3333 0.3333 0.0000  plane waves:    9568
 k-point 11 :   0.5000 0.3333 0.0000  plane waves:    9565
 k-point 12 :  -0.3333 0.3333 0.0000  plane waves:    9558
 k-point 13 :   0.5000 0.5000 0.0000  plane waves:    9542
 k-point 14 :   0.0000 0.0000 0.5000  plane waves:    9534
 k-point 15 :   0.1667 0.0000 0.5000  plane waves:    9564
 k-point 16 :   0.3333 0.0000 0.5000  plane waves:    9566
 k-point 17 :   0.5000 0.0000 0.5000  plane waves:    9588
 k-point 18 :   0.1667 0.1667 0.5000  plane waves:    9574
 k-point 19 :   0.3333 0.1667 0.5000  plane waves:    9594
 k-point 20 :   0.5000 0.1667 0.5000  plane waves:    9578
 k-point 21 :  -0.3333 0.1667 0.5000  plane waves:    9562
 k-point 22 :  -0.1667 0.1667 0.5000  plane waves:    9520
 k-point 23 :   0.3333 0.3333 0.5000  plane waves:    9610
 k-point 24 :   0.5000 0.3333 0.5000  plane waves:    9566
 k-point 25 :  -0.3333 0.3333 0.5000  plane waves:    9554
 k-point 26 :   0.5000 0.5000 0.5000  plane waves:    9532
 k-point 27 :   0.0000 0.0000 0.0000  plane waves:    9541
 k-point 28 :  -0.0625 0.0625 0.0000  plane waves:    9537
 k-point 29 :  -0.1250 0.1250 0.0000  plane waves:    9553
 k-point 30 :  -0.1875 0.1875 0.0000  plane waves:    9545
 k-point 31 :  -0.2500 0.2500 0.0000  plane waves:    9559
 k-point 32 :  -0.3125 0.3125 0.0000  plane waves:    9558
 k-point 33 :  -0.3750 0.3750 0.0000  plane waves:    9538
 k-point 34 :  -0.4375 0.4375 0.0000  plane waves:    9538
 k-point 35 :  -0.5000 0.5000 0.0000  plane waves:    9542
 k-point 36 :  -0.5000 0.5000 0.0000  plane waves:    9542
 k-point 37 :  -0.4854 0.5146 0.0000  plane waves:    9544
 k-point 38 :  -0.4709 0.5291 0.0000  plane waves:    9546
 k-point 39 :  -0.4563 0.5437 0.0000  plane waves:    9568
 k-point 40 :  -0.4418 0.5582 0.0000  plane waves:    9556
 k-point 41 :  -0.4272 0.5728 0.0000  plane waves:    9546
 k-point 42 :  -0.4126 0.5874 0.0000  plane waves:    9572
 k-point 43 :  -0.3981 0.6019 0.0000  plane waves:    9566
 k-point 44 :  -0.3835 0.6165 0.0000  plane waves:    9554
 k-point 45 :  -0.3690 0.6310 0.0000  plane waves:    9578
 k-point 46 :  -0.3544 0.6456 0.0000  plane waves:    9574
 k-point 47 :  -0.3398 0.6602 0.0000  plane waves:    9578
 k-point 48 :  -0.3253 0.6747 0.0000  plane waves:    9584
 k-point 49 :  -0.3107 0.6893 0.0000  plane waves:    9576
 k-point 50 :  -0.2962 0.7038 0.0000  plane waves:    9580
 k-point 51 :  -0.2816 0.7184 0.0000  plane waves:    9578
 k-point 52 :  -0.2670 0.7330 0.0000  plane waves:    9568
 k-point 53 :   0.2670 0.2670 0.0000  plane waves:    9568
 k-point 54 :   0.2522 0.2522 0.0000  plane waves:    9546
 k-point 55 :   0.2374 0.2374 0.0000  plane waves:    9570
 k-point 56 :   0.2225 0.2225 0.0000  plane waves:    9570
 k-point 57 :   0.2077 0.2077 0.0000  plane waves:    9592
 k-point 58 :   0.1929 0.1929 0.0000  plane waves:    9590
 k-point 59 :   0.1780 0.1780 0.0000  plane waves:    9590
 k-point 60 :   0.1632 0.1632 0.0000  plane waves:    9578
 k-point 61 :   0.1484 0.1484 0.0000  plane waves:    9584
 k-point 62 :   0.1335 0.1335 0.0000  plane waves:    9580
 k-point 63 :   0.1187 0.1187 0.0000  plane waves:    9578
 k-point 64 :   0.1038 0.1038 0.0000  plane waves:    9574
 k-point 65 :   0.0890 0.0890 0.0000  plane waves:    9568
 k-point 66 :   0.0742 0.0742 0.0000  plane waves:    9598
 k-point 67 :   0.0593 0.0593 0.0000  plane waves:    9590
 k-point 68 :   0.0445 0.0445 0.0000  plane waves:    9576
 k-point 69 :   0.0297 0.0297 0.0000  plane waves:    9568
 k-point 70 :   0.0148 0.0148 0.0000  plane waves:    9563
 k-point 71 :   0.0000 0.0000 0.0000  plane waves:    9541
 k-point 72 :   0.0000 0.0000 0.0000  plane waves:    9541
 k-point 73 :   0.0000 0.0000 0.0833  plane waves:    9537
 k-point 74 :   0.0000 0.0000 0.1667  plane waves:    9533
 k-point 75 :   0.0000 0.0000 0.2500  plane waves:    9556
 k-point 76 :   0.0000 0.0000 0.3333  plane waves:    9546
 k-point 77 :   0.0000 0.0000 0.4167  plane waves:    9550
 k-point 78 :   0.0000 0.0000 0.5000  plane waves:    9534
 k-point 79 :   0.0000 0.0000 0.5000  plane waves:    9534
 k-point 80 :   0.0148 0.0148 0.5000  plane waves:    9538
 k-point 81 :   0.0297 0.0297 0.5000  plane waves:    9534
 k-point 82 :   0.0445 0.0445 0.5000  plane waves:    9532
 k-point 83 :   0.0593 0.0593 0.5000  plane waves:    9538
 k-point 84 :   0.0742 0.0742 0.5000  plane waves:    9554
 k-point 85 :   0.0890 0.0890 0.5000  plane waves:    9570
 k-point 86 :   0.1038 0.1038 0.5000  plane waves:    9570
 k-point 87 :   0.1187 0.1187 0.5000  plane waves:    9558
 k-point 88 :   0.1335 0.1335 0.5000  plane waves:    9574
 k-point 89 :   0.1484 0.1484 0.5000  plane waves:    9576
 k-point 90 :   0.1632 0.1632 0.5000  plane waves:    9574
 k-point 91 :   0.1780 0.1780 0.5000  plane waves:    9582
 k-point 92 :   0.1929 0.1929 0.5000  plane waves:    9560
 k-point 93 :   0.2077 0.2077 0.5000  plane waves:    9564
 k-point 94 :   0.2225 0.2225 0.5000  plane waves:    9572
 k-point 95 :   0.2374 0.2374 0.5000  plane waves:    9582
 k-point 96 :   0.2522 0.2522 0.5000  plane waves:    9610
 k-point 97 :   0.2670 0.2670 0.5000  plane waves:    9618
 k-point 98 :  -0.2670 0.7330 0.5000  plane waves:    9618
 k-point 99 :  -0.2816 0.7184 0.5000  plane waves:    9656
 k-point ** :  -0.2962 0.7038 0.5000  plane waves:    9636
 k-point ** :  -0.3107 0.6893 0.5000  plane waves:    9606
 k-point ** :  -0.3253 0.6747 0.5000  plane waves:    9598
 k-point ** :  -0.3398 0.6602 0.5000  plane waves:    9610
 k-point ** :  -0.3544 0.6456 0.5000  plane waves:    9616
 k-point ** :  -0.3690 0.6310 0.5000  plane waves:    9608
 k-point ** :  -0.3835 0.6165 0.5000  plane waves:    9616
 k-point ** :  -0.3981 0.6019 0.5000  plane waves:    9576
 k-point ** :  -0.4126 0.5874 0.5000  plane waves:    9560
 k-point ** :  -0.4272 0.5728 0.5000  plane waves:    9572
 k-point ** :  -0.4418 0.5582 0.5000  plane waves:    9586
 k-point ** :  -0.4563 0.5437 0.5000  plane waves:    9572
 k-point ** :  -0.4709 0.5291 0.5000  plane waves:    9548
 k-point ** :  -0.4854 0.5146 0.5000  plane waves:    9540
 k-point ** :  -0.5000 0.5000 0.5000  plane waves:    9532
 k-point ** :  -0.5000 0.5000 0.5000  plane waves:    9532
 k-point ** :  -0.5000 0.5000 0.4167  plane waves:    9546
 k-point ** :  -0.5000 0.5000 0.3333  plane waves:    9558
 k-point ** :  -0.5000 0.5000 0.2500  plane waves:    9564
 k-point ** :  -0.5000 0.5000 0.1667  plane waves:    9554
 k-point ** :  -0.5000 0.5000 0.0833  plane waves:    9556
 k-point ** :  -0.5000 0.5000 0.0000  plane waves:    9542
 k-point ** :   0.0000 0.0000 0.0000  plane waves:    9541
 k-point ** :   0.0000 0.0294 0.0000  plane waves:    9557
 k-point ** :   0.0000 0.0588 0.0000  plane waves:    9567
 k-point ** :   0.0000 0.0882 0.0000  plane waves:    9578
 k-point ** :   0.0000 0.1176 0.0000  plane waves:    9575
 k-point ** :   0.0000 0.1471 0.0000  plane waves:    9577
 k-point ** :   0.0000 0.1765 0.0000  plane waves:    9571
 k-point ** :   0.0000 0.2059 0.0000  plane waves:    9571
 k-point ** :   0.0000 0.2353 0.0000  plane waves:    9582
 k-point ** :   0.0000 0.2647 0.0000  plane waves:    9583
 k-point ** :   0.0000 0.2941 0.0000  plane waves:    9572
 k-point ** :   0.0000 0.3235 0.0000  plane waves:    9573
 k-point ** :   0.0000 0.3529 0.0000  plane waves:    9584
 k-point ** :   0.0000 0.3824 0.0000  plane waves:    9580
 k-point ** :   0.0000 0.4118 0.0000  plane waves:    9581
 k-point ** :   0.0000 0.4412 0.0000  plane waves:    9582
 k-point ** :   0.0000 0.4706 0.0000  plane waves:    9584
 k-point ** :   0.0000 0.5000 0.0000  plane waves:    9594
 k-point ** :   0.0000 0.5000 0.0000  plane waves:    9594
 k-point ** :   0.0000 0.5000 0.0833  plane waves:    9586
 k-point ** :   0.0000 0.5000 0.1667  plane waves:    9586
 k-point ** :   0.0000 0.5000 0.2500  plane waves:    9590
 k-point ** :   0.0000 0.5000 0.3333  plane waves:    9582
 k-point ** :   0.0000 0.5000 0.4167  plane waves:    9588
 k-point ** :   0.0000 0.5000 0.5000  plane waves:    9588
 k-point ** :   0.0000 0.5000 0.5000  plane waves:    9588
 k-point ** :   0.0000 0.4706 0.5000  plane waves:    9586
 k-point ** :   0.0000 0.4412 0.5000  plane waves:    9582
 k-point ** :   0.0000 0.4118 0.5000  plane waves:    9596
 k-point ** :   0.0000 0.3824 0.5000  plane waves:    9582
 k-point ** :   0.0000 0.3529 0.5000  plane waves:    9590
 k-point ** :   0.0000 0.3235 0.5000  plane waves:    9568
 k-point ** :   0.0000 0.2941 0.5000  plane waves:    9570
 k-point ** :   0.0000 0.2647 0.5000  plane waves:    9576
 k-point ** :   0.0000 0.2353 0.5000  plane waves:    9572
 k-point ** :   0.0000 0.2059 0.5000  plane waves:    9568
 k-point ** :   0.0000 0.1765 0.5000  plane waves:    9566
 k-point ** :   0.0000 0.1471 0.5000  plane waves:    9560
 k-point ** :   0.0000 0.1176 0.5000  plane waves:    9542
 k-point ** :   0.0000 0.0882 0.5000  plane waves:    9542
 k-point ** :   0.0000 0.0588 0.5000  plane waves:    9536
 k-point ** :   0.0000 0.0294 0.5000  plane waves:    9540
 k-point ** :   0.0000 0.0000 0.5000  plane waves:    9534
 k-point ** :   0.0000 0.0000 0.5000  plane waves:    9534
 k-point ** :  -0.0625 0.0625 0.5000  plane waves:    9542
 k-point ** :  -0.1250 0.1250 0.5000  plane waves:    9534
 k-point ** :  -0.1875 0.1875 0.5000  plane waves:    9520
 k-point ** :  -0.2500 0.2500 0.5000  plane waves:    9532
 k-point ** :  -0.3125 0.3125 0.5000  plane waves:    9546
 k-point ** :  -0.3750 0.3750 0.5000  plane waves:    9526
 k-point ** :  -0.4375 0.4375 0.5000  plane waves:    9548
 k-point ** :  -0.5000 0.5000 0.5000  plane waves:    9532

 maximum and minimum number of plane-waves per node :      1223     1161

 maximum number of plane-waves:      9656
 maximum index in each direction: 
   IXMAX=   16   IYMAX=   15   IZMAX=   18
   IXMIN=  -16   IYMIN=  -16   IZMIN=  -19


 parallel 3D FFT for wavefunctions:
    minimum data exchange during FFTs selected (reduces bandwidth)
 parallel 3D FFT for charge:
    minimum data exchange during FFTs selected (reduces bandwidth)


 FFT grid for exact exchange (Hartree Fock) 
  NGX = 48; NGY = 48; NGZ = 60

 
 Radii for the augmentation spheres in the non-local exchange
 for species   1 augmentation radius   1.622 (default was   1.298)
       energy cutoff for augmentation   2080.0
 for species   2 augmentation radius   1.484 (default was   1.188)
       energy cutoff for augmentation   2080.0

 real space projection operators:
  total allocation   :       8957.42 KBytes
  max/ min on nodes  :       1126.95       1107.42

 Maximum index for augmentation-charges in exchange          851
  SETUP_FOCK is finished

 total amount of memory used by VASP MPI-rank0   534632. kBytes
=======================================================================

   base      :      30000. kBytes
   nonl-proj :     109283. kBytes
   fftplans  :       8243. kBytes
   grid      :       6602. kBytes
   one-center:         98. kBytes
   HF        :        204. kBytes
   nonlr-proj:       2337. kBytes
   wavefun   :     377865. kBytes
 
     INWAV:  cpu time   35.9581: real time   36.0241
 initial charge density was supplied:
 number of electron      76.0000000 magnetization      11.9946380
 keeping initial charge density in first step


--------------------------------------------------------------------------------------------------------


 Maximum index for augmentation-charges         8705 (set IRDMAX)


--------------------------------------------------------------------------------------------------------


 First call to EWALD:  gamma=   0.250
 Maximum number of real-space cells 4x 4x 2
 Maximum number of reciprocal cells 3x 3x 4

    FEWALD:  cpu time    0.0014: real time    0.0015


--------------------------------------- Iteration      1(   1)  ---------------------------------------


    POTLOK:  cpu time    0.2012: real time    0.2055
    SETDIJ:  cpu time    0.3215: real time    0.3216
    TRIAL :  cpu time21844.1112: real time21852.9402
    CORREC:  cpu time    0.0096: real time    0.0555
    --------------------------------------------
      LOOP:  cpu time21844.7958: real time21853.6763

 eigenvalue-minimisations  :     0
 total energy-change (2. order) :-0.6755680E+02  (-0.3977729E+00)
 number of electron      76.0000000 magnetization      11.9946380
 augmentation part       76.0000000 magnetization      11.9946380

 Free energy of the ion-electron system (eV)
  ---------------------------------------------------
  alpha Z        PSCENC =       101.00659627
  Ewald energy   TEWEN  =     -3778.83224094
  -Hartree energ DENC   =     -2593.84692997
  -exchange      EXHF   =       144.17136169
  -V(xc)+E(xc)   XCENC  =        39.06252431
  PAW double counting   =      6740.72120242    -6617.78771416
  entropy T*S    EENTRO =        -0.01005794
  eigenvalues    EBANDS =      -508.60876069
  atomic energy  EATOM  =      6406.57083003
  ---------------------------------------------------
  free energy    TOTEN  =       -67.55679536 eV

  energy without entropy =      -67.54673742  energy(sigma->0) =      -67.55176639
  exchange ACFDT corr.  =        -0.03484157  see jH, gK, PRB 81, 115126


--------------------------------------------------------------------------------------------------------




--------------------------------------- Iteration      1(   2)  ---------------------------------------


    TRIAL :  cpu time21823.0986: real time21831.6266
    CORREC:  cpu time    0.0095: real time    0.0908
    --------------------------------------------
      LOOP:  cpu time21823.1125: real time21831.9081

 eigenvalue-minimisations  :     0
 total energy-change (2. order) :-0.3237393E+00  (-0.3794895E+00)
 number of electron      76.0000000 magnetization      11.9946380
 augmentation part       76.0000000 magnetization      11.9946380

 Free energy of the ion-electron system (eV)
  ---------------------------------------------------
  alpha Z        PSCENC =       101.00659627
  Ewald energy   TEWEN  =     -3778.83224094
  -Hartree energ DENC   =     -2593.84692997
  -exchange      EXHF   =       144.49077542
  -V(xc)+E(xc)   XCENC  =        39.06252431
  PAW double counting   =      6740.72120242    -6617.78771416
  entropy T*S    EENTRO =        -0.00695569
  eigenvalues    EBANDS =      -509.25552008
  atomic energy  EATOM  =      6406.57083003
  ---------------------------------------------------
  free energy    TOTEN  =       -67.88053464 eV

  energy without entropy =      -67.87357896  energy(sigma->0) =      -67.87705680
  exchange ACFDT corr.  =        -0.04223193  see jH, gK, PRB 81, 115126


--------------------------------------------------------------------------------------------------------




--------------------------------------- Iteration      1(   3)  ---------------------------------------


    TRIAL :  cpu time21831.7662: real time21840.0811
    CORREC:  cpu time    0.0098: real time    0.1221
    --------------------------------------------
      LOOP:  cpu time21831.7786: real time21840.3364

 eigenvalue-minimisations  :     0
 total energy-change (2. order) :-0.3096626E+00  (-0.3700067E+00)
 number of electron      76.0000000 magnetization      11.9946380
 augmentation part       76.0000000 magnetization      11.9946380

 Free energy of the ion-electron system (eV)
  ---------------------------------------------------
  alpha Z        PSCENC =       101.00659627
  Ewald energy   TEWEN  =     -3778.83224094
  -Hartree energ DENC   =     -2593.84692997
  -exchange      EXHF   =       144.84357502
  -V(xc)+E(xc)   XCENC  =        39.06252431
  PAW double counting   =      6740.72120242    -6617.78771416
  entropy T*S    EENTRO =        -0.00611268
  eigenvalues    EBANDS =      -509.92108451
  atomic energy  EATOM  =      6406.57083003
  ---------------------------------------------------
  free energy    TOTEN  =       -68.19019722 eV

  energy without entropy =      -68.18408455  energy(sigma->0) =      -68.18714088
  exchange ACFDT corr.  =        -0.12762159  see jH, gK, PRB 81, 115126


--------------------------------------------------------------------------------------------------------




--------------------------------------- Iteration      1(   4)  ---------------------------------------


    TRIAL :  cpu time21837.0558: real time21849.0640
    CORREC:  cpu time    0.0090: real time    0.0412
    --------------------------------------------
      LOOP:  cpu time21837.0677: real time21849.2574

 eigenvalue-minimisations  :     0
 total energy-change (2. order) :-0.3736824E+00  (-0.5456586E+00)
 number of electron      76.0000000 magnetization      11.9946380
 augmentation part       76.0000000 magnetization      11.9946380

 Free energy of the ion-electron system (eV)
  ---------------------------------------------------
  alpha Z        PSCENC =       101.00659627
  Ewald energy   TEWEN  =     -3778.83224094
  -Hartree energ DENC   =     -2593.84692997
  -exchange      EXHF   =       145.22481108
  -V(xc)+E(xc)   XCENC  =        39.06252431
  PAW double counting   =      6740.72120242    -6617.78771416
  entropy T*S    EENTRO =        -0.00190476
  eigenvalues    EBANDS =      -510.67684597
  atomic energy  EATOM  =      6406.57083003
  ---------------------------------------------------
  free energy    TOTEN  =       -68.56387961 eV

  energy without entropy =      -68.56197485  energy(sigma->0) =      -68.56292723
  exchange ACFDT corr.  =        -0.13641626  see jH, gK, PRB 81, 115126


--------------------------------------------------------------------------------------------------------




--------------------------------------- Iteration      1(   5)  ---------------------------------------


    TRIAL :  cpu time21832.4454: real time21841.1680
    CORREC:  cpu time    0.0092: real time    0.0677
    --------------------------------------------
      LOOP:  cpu time21832.4581: real time21841.3333

 eigenvalue-minimisations  :     0
 total energy-change (2. order) :-0.4307746E+00  (-0.4628862E+00)
 number of electron      76.0000000 magnetization      11.9946380
 augmentation part       76.0000000 magnetization      11.9946380

 Free energy of the ion-electron system (eV)
  ---------------------------------------------------
  alpha Z        PSCENC =       101.00659627
  Ewald energy   TEWEN  =     -3778.83224094
  -Hartree energ DENC   =     -2593.84692997
  -exchange      EXHF   =       145.60689552
  -V(xc)+E(xc)   XCENC  =        39.06252431
  PAW double counting   =      6740.72120242    -6617.78771416
  entropy T*S    EENTRO =        -0.00221645
  eigenvalues    EBANDS =      -511.49391298
  atomic energy  EATOM  =      6406.57083003
  ---------------------------------------------------
  free energy    TOTEN  =       -68.99465426 eV

  energy without entropy =      -68.99243781  energy(sigma->0) =      -68.99354603
  exchange ACFDT corr.  =        -0.07880131  see jH, gK, PRB 81, 115126


--------------------------------------------------------------------------------------------------------




--------------------------------------- Iteration      1(   6)  ---------------------------------------


    TRIAL :  cpu time21821.8291: real time21830.8036
    CORREC:  cpu time    0.0061: real time    0.1157
    --------------------------------------------
      LOOP:  cpu time21821.8381: real time21830.9922

 eigenvalue-minimisations  :     0
 total energy-change (2. order) :-0.3296693E+00  (-0.4736470E+00)
 number of electron      76.0000000 magnetization      11.9946380
 augmentation part       76.0000000 magnetization      11.9946380

 Free energy of the ion-electron system (eV)
  ---------------------------------------------------
  alpha Z        PSCENC =       101.00659627
  Ewald energy   TEWEN  =     -3778.83224094
  -Hartree energ DENC   =     -2593.84692997
  -exchange      EXHF   =       145.89480279
  -V(xc)+E(xc)   XCENC  =        39.06252431
  PAW double counting   =      6740.72120242    -6617.78771416
  entropy T*S    EENTRO =        -0.00000000
  eigenvalues    EBANDS =      -512.11117788
  atomic energy  EATOM  =      6406.57083003
[...]
  0.000  -0.000  -0.000   0.000  -0.002  -0.000   0.000  -0.000
 -0.000   0.000   0.000  -0.001   0.000   0.000   0.000   0.000
 -0.001   0.002   0.001   0.000   0.000  -0.000   0.000   0.000
  0.000  -0.000   0.000  -0.000   0.000   0.000  -0.000   0.000
  0.000   0.003   0.001  -0.000  -0.000  -0.001  -0.000  -0.000
  0.000  -0.000  -0.000   0.000  -0.002  -0.000   0.000  -0.001
 -0.000   0.000   0.000  -0.001   0.000   0.000   0.001   0.000
 -0.001   0.003   0.001   0.000   0.000  -0.000   0.000   0.000
  0.000  -0.000   0.000  -0.000   0.000   0.000  -0.000   0.000
  0.000   0.004   0.001  -0.000  -0.000  -0.001  -0.000  -0.000
  0.004   0.000   0.015  -0.000  -0.000  -0.009   0.000   0.000
 -0.000  -0.000  -0.000  -0.000   0.000   0.000   0.000  -0.000
 -0.001  -0.000   0.005   0.000  -0.000  -0.005  -0.000  -0.000
 -0.000  -0.000  -0.000   0.001   0.000   0.000  -0.003  -0.000
  0.000   0.000  -0.000   0.000   0.001  -0.000   0.000  -0.002
  0.000   0.000  -0.000   0.008   0.000   0.000  -0.005  -0.000
  0.000   0.000   0.000   0.000   0.003  -0.000  -0.000  -0.004
  0.004   0.000   0.014  -0.000  -0.000  -0.008   0.000   0.000
 -0.000  -0.000  -0.000  -0.000   0.000   0.000   0.000  -0.000
 -0.001  -0.000   0.005   0.000  -0.000  -0.005  -0.000  -0.000
 -0.000  -0.000  -0.000   0.001   0.000   0.000  -0.003  -0.000
  0.000   0.000  -0.000   0.000   0.001  -0.000  -0.000  -0.002
  0.000   0.000  -0.000   0.007   0.000   0.000  -0.005  -0.000
  0.000   0.000   0.000   0.000   0.003  -0.000  -0.000  -0.003
 pseudopotential strength for first ion, spin component:           2
 55.263 -60.446  -0.003   0.000  -0.000   0.000   0.000  -0.000
-60.446  44.475   0.005  -0.000   0.000  -0.002   0.000  -0.000
 -0.003   0.005  20.598  -0.000  -0.000  -9.950  -0.000  -0.000
  0.000  -0.000  -0.000  20.600   0.000  -0.000  -9.963   0.000
 -0.000   0.000  -0.000   0.000  20.598  -0.000   0.000  -9.963
  0.000  -0.002  -9.950  -0.000  -0.000  17.041   0.000   0.000
  0.000   0.000  -0.000  -9.963   0.000   0.000  17.055  -0.000
 -0.000  -0.000  -0.000   0.000  -9.963   0.000  -0.000  17.052
 -0.000   0.000  -0.000   0.000  -0.002  -0.000   0.000  -0.001
 -0.000   0.000   0.000  -0.001   0.000   0.000   0.000   0.000
 -0.002   0.003   0.001   0.000  -0.000  -0.000   0.000  -0.000
  0.000  -0.000   0.000  -0.000  -0.000   0.000  -0.000  -0.000
 -0.003   0.005   0.000  -0.000  -0.000  -0.001  -0.000  -0.000
 -0.000   0.000  -0.000   0.000  -0.003  -0.000   0.000  -0.001
 -0.000   0.000   0.000  -0.002   0.000   0.000   0.000   0.000
 -0.002   0.004   0.001   0.000  -0.000  -0.000   0.000  -0.000
  0.000  -0.000   0.000  -0.000  -0.000   0.000  -0.000  -0.000
 -0.004   0.007   0.001  -0.000  -0.000  -0.002  -0.000  -0.000
  0.007   0.000   0.011   0.000   0.000  -0.009  -0.000  -0.000
 -0.000  -0.000  -0.000   0.000   0.000   0.000  -0.000  -0.000
  0.000   0.000   0.002  -0.000   0.000  -0.006   0.000   0.000
 -0.000  -0.000  -0.000   0.011   0.000   0.000  -0.010  -0.000
  0.000   0.000   0.000   0.000   0.002   0.000  -0.000  -0.004
  0.000   0.000   0.000   0.017   0.000  -0.000  -0.011  -0.000
  0.000   0.000  -0.000   0.000   0.017   0.000  -0.000  -0.012
  0.007   0.000   0.010   0.000   0.000  -0.008  -0.000  -0.000
 -0.000  -0.000  -0.000   0.000   0.000   0.000  -0.000  -0.000
  0.000   0.000   0.002  -0.000   0.000  -0.005   0.000   0.000
 -0.000  -0.000  -0.000   0.011   0.000   0.000  -0.009  -0.000
  0.000   0.000   0.000   0.000   0.002   0.000  -0.000  -0.004
  0.000   0.000   0.000   0.016   0.000  -0.000  -0.010  -0.000
  0.000   0.000  -0.000   0.000   0.016   0.000  -0.000  -0.011
 total augmentation occupancy for first ion, spin component:           1
  2.000   0.000   0.000   0.000   0.000   0.000   0.000   0.000   0.000   0.000   0.000   0.000   0.000   0.000   0.000   0.000
  0.000   2.000   0.000   0.000   0.000   0.000   0.000   0.000   0.000   0.000   0.000   0.000   0.000   0.000   0.000   0.000
  0.000   0.000   2.000   0.000   0.000   0.000   0.000   0.000   0.000   0.000   0.000   0.000   0.000   0.000   0.000   0.000
  0.000   0.000   0.000   2.000   0.000   0.000   0.000   0.000   0.000   0.000   0.000   0.000   0.000   0.000   0.000   0.000
  0.000   0.000   0.000   0.000   2.000   0.000   0.000   0.000   0.000   0.000   0.000   0.000   0.000   0.000   0.000   0.000
  0.000   0.000   0.000   0.000   0.000   0.000   0.000   0.000   0.000   0.000   0.000   0.000   0.000   0.000   0.000   0.000
  0.000   0.000   0.000   0.000   0.000   0.000   0.000   0.000   0.000   0.000   0.000   0.000   0.000   0.000   0.000   0.000
  0.000   0.000   0.000   0.000   0.000   0.000   0.000   0.000   0.000   0.000   0.000   0.000   0.000   0.000   0.000   0.000
  0.000   0.000   0.000   0.000   0.000   0.000   0.000   0.000   0.400   0.000   0.000   0.000   0.000   0.000   0.000   0.000
  0.000   0.000   0.000   0.000   0.000   0.000   0.000   0.000   0.000   0.400   0.000   0.000   0.000   0.000   0.000   0.000
  0.000   0.000   0.000   0.000   0.000   0.000   0.000   0.000   0.000   0.000   0.400   0.000   0.000   0.000   0.000   0.000
  0.000   0.000   0.000   0.000   0.000   0.000   0.000   0.000   0.000   0.000   0.000   0.400   0.000   0.000   0.000   0.000
  0.000   0.000   0.000   0.000   0.000   0.000   0.000   0.000   0.000   0.000   0.000   0.000   0.400   0.000   0.000   0.000
  0.000   0.000   0.000   0.000   0.000   0.000   0.000   0.000   0.000   0.000   0.000   0.000   0.000   0.000   0.000   0.000
  0.000   0.000   0.000   0.000   0.000   0.000   0.000   0.000   0.000   0.000   0.000   0.000   0.000   0.000   0.000   0.000
  0.000   0.000   0.000   0.000   0.000   0.000   0.000   0.000   0.000   0.000   0.000   0.000   0.000   0.000   0.000   0.000
  0.000   0.000   0.000   0.000   0.000   0.000   0.000   0.000   0.000   0.000   0.000   0.000   0.000   0.000   0.000   0.000
  0.000   0.000   0.000   0.000   0.000   0.000   0.000   0.000   0.000   0.000   0.000   0.000   0.000   0.000   0.000   0.000
  0.000   0.000   0.000   0.000   0.000   0.000   0.000   0.000   0.000   0.000   0.000   0.000   0.000   0.000   0.000   0.000
  0.000   0.000   0.000   0.000   0.000   0.000   0.000   0.000   0.000   0.000   0.000   0.000   0.000   0.000   0.000   0.000
  0.000   0.000   0.000   0.000   0.000   0.000   0.000   0.000   0.000   0.000   0.000   0.000   0.000   0.000   0.000   0.000
  0.000   0.000   0.000   0.000   0.000   0.000   0.000   0.000   0.000   0.000   0.000   0.000   0.000   0.000   0.000   0.000
  0.000   0.000   0.000   0.000   0.000   0.000   0.000   0.000   0.000   0.000   0.000   0.000   0.000   0.000   0.000   0.000
  0.000   0.000   0.000   0.000   0.000   0.000   0.000   0.000   0.000   0.000   0.000   0.000   0.000   0.000   0.000   0.000
  0.000   0.000   0.000   0.000   0.000   0.000   0.000   0.000   0.000   0.000   0.000   0.000   0.000   0.000   0.000   0.000
  0.000   0.000   0.000   0.000   0.000   0.000   0.000   0.000   0.000   0.000   0.000   0.000   0.000   0.000   0.000   0.000
  0.000   0.000   0.000   0.000   0.000   0.000   0.000   0.000   0.000   0.000   0.000   0.000   0.000   0.000   0.000   0.000
  0.000   0.000   0.000   0.000   0.000   0.000   0.000   0.000   0.000   0.000   0.000   0.000   0.000   0.000   0.000   0.000
  0.000   0.000   0.000   0.000   0.000   0.000   0.000   0.000   0.000   0.000   0.000   0.000   0.000   0.000   0.000   0.000
  0.000   0.000   0.000   0.000   0.000   0.000   0.000   0.000   0.000   0.000   0.000   0.000   0.000   0.000   0.000   0.000
  0.000   0.000   0.000   0.000   0.000   0.000   0.000   0.000   0.000   0.000   0.000   0.000   0.000   0.000   0.000   0.000
  0.000   0.000   0.000   0.000   0.000   0.000   0.000   0.000   0.000   0.000   0.000   0.000   0.000   0.000   0.000   0.000
 total augmentation occupancy for first ion, spin component:           2
  0.118   0.000   0.000   0.000   0.000   0.000   0.000   0.000   0.000   0.000   0.000   0.000   0.000   0.000   0.000   0.000
  0.000   0.118   0.000   0.000   0.000   0.000   0.000   0.000   0.000   0.000   0.000   0.000   0.000   0.000   0.000   0.000
  0.000   0.000   0.118   0.000   0.000   0.000   0.000   0.000   0.000   0.000   0.000   0.000   0.000   0.000   0.000   0.000
  0.000   0.000   0.000   0.118   0.000   0.000   0.000   0.000   0.000   0.000   0.000   0.000   0.000   0.000   0.000   0.000
  0.000   0.000   0.000   0.000   0.118   0.000   0.000   0.000   0.000   0.000   0.000   0.000   0.000   0.000   0.000   0.000
  0.000   0.000   0.000   0.000   0.000   0.000   0.000   0.000   0.000   0.000   0.000   0.000   0.000   0.000   0.000   0.000
  0.000   0.000   0.000   0.000   0.000   0.000   0.000   0.000   0.000   0.000   0.000   0.000   0.000   0.000   0.000   0.000
  0.000   0.000   0.000   0.000   0.000   0.000   0.000   0.000   0.000   0.000   0.000   0.000   0.000   0.000   0.000   0.000
  0.000   0.000   0.000   0.000   0.000   0.000   0.000   0.000   0.024   0.000   0.000   0.000   0.000   0.000   0.000   0.000
  0.000   0.000   0.000   0.000   0.000   0.000   0.000   0.000   0.000   0.024   0.000   0.000   0.000   0.000   0.000   0.000
  0.000   0.000   0.000   0.000   0.000   0.000   0.000   0.000   0.000   0.000   0.024   0.000   0.000   0.000   0.000   0.000
  0.000   0.000   0.000   0.000   0.000   0.000   0.000   0.000   0.000   0.000   0.000   0.024   0.000   0.000   0.000   0.000
  0.000   0.000   0.000   0.000   0.000   0.000   0.000   0.000   0.000   0.000   0.000   0.000   0.024   0.000   0.000   0.000
  0.000   0.000   0.000   0.000   0.000   0.000   0.000   0.000   0.000   0.000   0.000   0.000   0.000   0.000   0.000   0.000
  0.000   0.000   0.000   0.000   0.000   0.000   0.000   0.000   0.000   0.000   0.000   0.000   0.000   0.000   0.000   0.000
  0.000   0.000   0.000   0.000   0.000   0.000   0.000   0.000   0.000   0.000   0.000   0.000   0.000   0.000   0.000   0.000
  0.000   0.000   0.000   0.000   0.000   0.000   0.000   0.000   0.000   0.000   0.000   0.000   0.000   0.000   0.000   0.000
  0.000   0.000   0.000   0.000   0.000   0.000   0.000   0.000   0.000   0.000   0.000   0.000   0.000   0.000   0.000   0.000
  0.000   0.000   0.000   0.000   0.000   0.000   0.000   0.000   0.000   0.000   0.000   0.000   0.000   0.000   0.000   0.000
  0.000   0.000   0.000   0.000   0.000   0.000   0.000   0.000   0.000   0.000   0.000   0.000   0.000   0.000   0.000   0.000
  0.000   0.000   0.000   0.000   0.000   0.000   0.000   0.000   0.000   0.000   0.000   0.000   0.000   0.000   0.000   0.000
  0.000   0.000   0.000   0.000   0.000   0.000   0.000   0.000   0.000   0.000   0.000   0.000   0.000   0.000   0.000   0.000
  0.000   0.000   0.000   0.000   0.000   0.000   0.000   0.000   0.000   0.000   0.000   0.000   0.000   0.000   0.000   0.000
  0.000   0.000   0.000   0.000   0.000   0.000   0.000   0.000   0.000   0.000   0.000   0.000   0.000   0.000   0.000   0.000
  0.000   0.000   0.000   0.000   0.000   0.000   0.000   0.000   0.000   0.000   0.000   0.000   0.000   0.000   0.000   0.000
  0.000   0.000   0.000   0.000   0.000   0.000   0.000   0.000   0.000   0.000   0.000   0.000   0.000   0.000   0.000   0.000
  0.000   0.000   0.000   0.000   0.000   0.000   0.000   0.000   0.000   0.000   0.000   0.000   0.000   0.000   0.000   0.000
  0.000   0.000   0.000   0.000   0.000   0.000   0.000   0.000   0.000   0.000   0.000   0.000   0.000   0.000   0.000   0.000
  0.000   0.000   0.000   0.000   0.000   0.000   0.000   0.000   0.000   0.000   0.000   0.000   0.000   0.000   0.000   0.000
  0.000   0.000   0.000   0.000   0.000   0.000   0.000   0.000   0.000   0.000   0.000   0.000   0.000   0.000   0.000   0.000
  0.000   0.000   0.000   0.000   0.000   0.000   0.000   0.000   0.000   0.000   0.000   0.000   0.000   0.000   0.000   0.000
  0.000   0.000   0.000   0.000   0.000   0.000   0.000   0.000   0.000   0.000   0.000   0.000   0.000   0.000   0.000   0.000


------------------------ aborting loop because EDIFF is reached ----------------------------------------


 


 total charge     
 
# of ion       s       p       d       f       tot
--------------------------------------------------
    1        2.126   5.912   0.511   6.029  14.578
    2        2.126   5.912   0.511   6.029  14.578
    3        1.511   2.975   0.011   0.000   4.497
    4        1.511   2.948   0.013   0.000   4.472
    5        1.511   2.948   0.013   0.000   4.472
    6        1.511   2.948   0.013   0.000   4.472
    7        1.511   2.948   0.013   0.000   4.472
    8        1.511   2.975   0.011   0.000   4.497
--------------------------------------------------
tot         13.317  29.568   1.096  12.059  56.039

 


 magnetization (x)
 
# of ion       s       p       d       f       tot
--------------------------------------------------
    1        0.019   0.007   0.087   5.910   6.024
    2        0.019   0.007   0.087   5.910   6.024
    3       -0.004  -0.044   0.002   0.000  -0.046
    4       -0.003  -0.045   0.002   0.000  -0.046
    5       -0.003  -0.045   0.002   0.000  -0.046
    6       -0.003  -0.045   0.002   0.000  -0.046
    7       -0.003  -0.045   0.002   0.000  -0.046
    8       -0.004  -0.044   0.002   0.000  -0.046
--------------------------------------------------
tot          0.017  -0.252   0.186  11.821  11.772

 
    CHARGE:  cpu time    0.4988: real time    0.5888
    FORLOC:  cpu time    0.0029: real time    0.0029
    FORHF :  cpu time12732.9651: real time12736.5201
    FORNL :  cpu time    6.7062: real time    7.5027
    FORCOR:  cpu time    0.5134: real time    0.5136
    FORHAR:  cpu time    0.0058: real time    0.0059
    OFIELD:  cpu time    0.0009: real time    0.0009

 VOLUME and BASIS-vectors are now :
 -----------------------------------------------------------------------------
  energy-cutoff  :      520.00
  volume of cell :      355.44
      direct lattice vectors                 reciprocal lattice vectors
     2.141262890 -8.203572522  0.000000000     0.233507059 -0.060949056  0.000000000
     2.141262890  8.203572522  0.000000000     0.233507059  0.060949056  0.000000000
     0.000000000  0.000000000 10.117160384     0.000000000  0.000000000  0.098841964

  length of vectors
     8.478420188  8.478420188 10.117160384     0.241330342  0.241330342  0.098841964


 FORCES acting on ions
    electron-ion (+dipol)            ewald-force                    non-local-force                 convergence-correction
 -----------------------------------------------------------------------------------------------
   0.171E-04 -.100E+02 0.943E-03   0.117E-13 0.153E+02 0.824E-12   0.000E+00 -.247E+01 -.203E-19   -.854E-05 -.209E+01 -.574E-03
   -.282E-04 0.100E+02 -.939E-03   -.694E-14 -.153E+02 -.790E-12   0.000E+00 0.247E+01 0.678E-20   0.136E-04 0.209E+01 0.571E-03
   -.618E-06 -.257E+03 -.609E-04   0.140E-13 0.264E+03 -.317E-12   -.694E-17 -.196E+01 0.529E-21   0.367E-07 -.541E+01 0.667E-04
   0.583E-05 0.216E+03 -.251E+02   0.311E-14 -.222E+03 0.268E+02   0.000E+00 0.193E+01 -.523E+00   -.902E-06 0.425E+01 -.101E+01
   -.160E-05 0.216E+03 0.251E+02   -.421E-14 -.222E+03 -.268E+02   0.000E+00 0.193E+01 0.523E+00   -.597E-06 0.425E+01 0.101E+01
   -.272E-06 -.216E+03 -.251E+02   0.141E-14 0.222E+03 0.268E+02   0.000E+00 -.193E+01 -.523E+00   0.128E-05 -.425E+01 -.101E+01
   -.100E-05 -.216E+03 0.251E+02   0.503E-14 0.222E+03 -.268E+02   0.000E+00 -.193E+01 0.523E+00   0.222E-06 -.425E+01 0.101E+01
   0.634E-05 0.257E+03 0.646E-04   -.868E-14 -.264E+03 0.263E-12   0.694E-17 0.196E+01 0.847E-21   -.106E-05 0.541E+01 -.678E-04
 -----------------------------------------------------------------------------------------------
   -.240E-05 -.746E-05 0.286E-05   0.155E-13 0.000E+00 0.711E-14   0.000E+00 -.444E-15 0.847E-21   0.399E-05 0.266E-05 -.224E-05
 
 
 POSITION                                       TOTAL-FORCE (eV/Angst)
 -----------------------------------------------------------------------------------
      2.14126      3.98755      2.52929         0.000000      0.145632      0.000000
      2.14126     -3.98755      7.58787         0.000000     -0.145632      0.000000
      2.14126      6.48571      7.58787         0.000000      0.326932     -0.000000
      2.14126      2.61192      9.42206         0.000000     -0.072611      0.083687
      2.14126      2.61192      5.75368         0.000000     -0.072611     -0.083687
      2.14126     -2.61192      4.36348         0.000000      0.072611      0.083687
      2.14126     -2.61192      0.69510         0.000000      0.072611     -0.083687
      2.14126     -6.48571      2.52929         0.000000     -0.326932      0.000000
 -----------------------------------------------------------------------------------
    total drift:                                0.000002     -0.000005      0.000001


--------------------------------------------------------------------------------------------------------



  FREE ENERGIE OF THE ION-ELECTRON SYSTEM (eV)
  ---------------------------------------------------
  free  energy   TOTEN  =       -69.85141740 eV

  energy  without entropy=      -69.85141740  energy(sigma->0) =      -69.85141740
 


--------------------------------------------------------------------------------------------------------


    POTLOK:  cpu time    0.5082: real time    0.6253


--------------------------------------------------------------------------------------------------------


     LOOP+:  cpu time**********: real time**********
    4ORBIT:  cpu time    0.0000: real time    0.0000
 


 total charge     
 
# of ion       s       p       d       f       tot
--------------------------------------------------
    1        2.126   5.912   0.511   6.029  14.578
    2        2.126   5.912   0.511   6.029  14.578
    3        1.511   2.975   0.011   0.000   4.497
    4        1.511   2.948   0.013   0.000   4.472
    5        1.511   2.948   0.013   0.000   4.472
    6        1.511   2.948   0.013   0.000   4.472
    7        1.511   2.948   0.013   0.000   4.472
    8        1.511   2.975   0.011   0.000   4.497
--------------------------------------------------
tot         13.317  29.568   1.096  12.059  56.039

 


 magnetization (x)
 
# of ion       s       p       d       f       tot
--------------------------------------------------
    1        0.019   0.007   0.087   5.910   6.024
    2        0.019   0.007   0.087   5.910   6.024
    3       -0.004  -0.044   0.002   0.000  -0.046
    4       -0.003  -0.045   0.002   0.000  -0.046
    5       -0.003  -0.045   0.002   0.000  -0.046
    6       -0.003  -0.045   0.002   0.000  -0.046
    7       -0.003  -0.045   0.002   0.000  -0.046
    8       -0.004  -0.044   0.002   0.000  -0.046
--------------------------------------------------
tot          0.017  -0.252   0.186  11.821  11.772

 

 total amount of memory used by VASP MPI-rank0   537563. kBytes
=======================================================================

   base      :      30000. kBytes
   nonl-proj :     109283. kBytes
   fftplans  :       8243. kBytes
   grid      :       6602. kBytes
   one-center:         98. kBytes
   HF        :        204. kBytes
   nonlr-proj:       5268. kBytes
   wavefun   :     377865. kBytes
 
  
  
 General timing and accounting informations for this job:
 ========================================================
  
                  Total CPU time used (sec):   493030.594
                            User time (sec):   492988.923
                          System time (sec):       41.663
                         Elapsed time (sec):   493255.255
  
                   Maximum memory used (kb):     1067568.
                   Average memory used (kb):           0.
  
                          Minor page faults:     38551419
                          Major page faults:        12827
                 Voluntary context switches:        22068
