 vasp.5.4.1 24Jun15 (build Nov 23 2015 09:58:10) complex                        
  
 executed on             LinuxIFC date 2020.06.18  04:33:13
 running on   24 total cores
 distrk:  each k-point on   24 cores,    1 groups
 distr:  one band on NCORES_PER_BAND=   4 cores,    6 groups


--------------------------------------------------------------------------------------------------------


 INCAR:
 POTCAR:    PAW_PBE H 15Jun2001                   
 POTCAR:    PAW_PBE W 08Apr2002                   
 POTCAR:    PAW_PBE H 15Jun2001                   
   VRHFIN =H: ultrasoft test                                                    
   LEXCH  = PE                                                                  
   EATOM  =    12.4884 eV,    0.9179 Ry                                         
                                                                                
   TITEL  = PAW_PBE H 15Jun2001                                                 
   LULTRA =        F    use ultrasoft PP ?                                      
   IUNSCR =        0    unscreen: 0-lin 1-nonlin 2-no                           
   RPACOR =    0.000    partial core radius                                     
   POMASS =    1.000; ZVAL   =    1.000    mass and valenz                      
   RCORE  =    1.100    outmost cutoff radius                                   
   RWIGS  =    0.700; RWIGS  =    0.370    wigner-seitz radius (au A)           
   ENMAX  =  250.000; ENMIN  =  200.000 eV                                      
   RCLOC  =    0.701    cutoff for local pot                                    
   LCOR   =        T    correct aug charges                                     
   LPAW   =        T    paw PP                                                  
   EAUG   =  400.000                                                            
   RMAX   =    1.123    core radius for proj-oper                               
   RAUG   =    1.200    factor for augmentation sphere                          
   RDEP   =    1.112    radius for radial grids                                 
   RDEPT  =    0.926    core radius for aug-charge                              
                                                                                
   Atomic configuration                                                         
    2 entries                                                                   
     n  l   j            E        occ.                                          
     1  0  0.50        -6.4927   1.0000                                         
     2  1  0.50        -3.4015   0.0000                                         
   Description                                                                  
     l       E           TYP  RCUT    TYP  RCUT                                 
     0     -6.4927494     23  1.100                                             
     0      6.8029130     23  1.100                                             
     1     -4.0817478     23  1.100                                             
  local pseudopotential read in
  atomic valenz-charges read in
  non local Contribution for L=           0  read in
    real space projection operators read in
  non local Contribution for L=           0  read in
    real space projection operators read in
  non local Contribution for L=           1  read in
    real space projection operators read in
    PAW grid and wavefunctions read in
 
   number of l-projection  operators is LMAX  =           3
   number of lm-projection operators is LMMAX =           5
 
 POTCAR:    PAW_PBE W 08Apr2002                   
   VRHFIN =W : 6s5d                                                             
   LEXCH  = PE                                                                  
   EATOM  =   204.6103 eV,   15.0384 Ry                                         
                                                                                
   TITEL  = PAW_PBE W 08Apr2002                                                 
   LULTRA =        F    use ultrasoft PP ?                                      
   IUNSCR =        1    unscreen: 0-lin 1-nonlin 2-no                           
   RPACOR =    2.330    partial core radius                                     
   POMASS =  183.850; ZVAL   =    6.000    mass and valenz                      
   RCORE  =    2.750    outmost cutoff radius                                   
   RWIGS  =    2.750; RWIGS  =    1.455    wigner-seitz radius (au A)           
   ENMAX  =  223.057; ENMIN  =  167.293 eV                                      
   RCLOC  =    2.147    cutoff for local pot                                    
   LCOR   =        T    correct aug charges                                     
   LPAW   =        T    paw PP                                                  
   EAUG   =  373.438                                                            
   DEXC   =    0.000                                                            
   RMAX   =    2.801    core radius for proj-oper                               
   RAUG   =    1.300    factor for augmentation sphere                          
   RDEP   =    2.886    radius for radial grids                                 
   RDEPT  =    2.230    core radius for aug-charge                              
                                                                                
   Atomic configuration                                                         
   16 entries                                                                   
     n  l   j            E        occ.                                          
     1  0  0.50    -69465.5836   2.0000                                         
     2  0  0.50    -11986.2642   2.0000                                         
     2  1  1.50    -10479.8616   6.0000                                         
     3  0  0.50     -2759.0758   2.0000                                         
     3  1  1.50     -2313.1857   6.0000                                         
     3  2  2.50     -1801.1185  10.0000                                         
     4  0  0.50      -567.6791   2.0000                                         
     4  1  1.50      -421.4694   6.0000                                         
     4  2  2.50      -236.3473  10.0000                                         
     4  3  3.50       -31.2666  14.0000                                         
     5  0  0.50       -77.1085   2.0000                                         
     5  1  1.50       -41.3856   6.0000                                         
     5  2  2.50        -3.3185   5.0000                                         
     6  0  0.50        -5.1438   1.0000                                         
     6  1  0.50        -3.8096   0.0000                                         
     5  3  2.50        -1.3606   0.0000                                         
   Description                                                                  
     l       E           TYP  RCUT    TYP  RCUT                                 
     2     -3.3185288     23  2.500                                             
     2     -1.5965414     23  2.500                                             
     0     -5.1438054     23  2.500                                             
     0      4.9117504     23  2.500                                             
     1      2.7211652     23  2.750                                             
     1     27.2116520     23  2.750                                             
  local pseudopotential read in
  partial core-charges read in
  partial kinetic energy density read in
  atomic valenz-charges read in
  non local Contribution for L=           2  read in
    real space projection operators read in
  non local Contribution for L=           2  read in
    real space projection operators read in
  non local Contribution for L=           0  read in
    real space projection operators read in
  non local Contribution for L=           0  read in
    real space projection operators read in
  non local Contribution for L=           1  read in
    real space projection operators read in
  non local Contribution for L=           1  read in
    real space projection operators read in
    PAW grid and wavefunctions read in
 
   number of l-projection  operators is LMAX  =           6
   number of lm-projection operators is LMMAX =          18
 
  PAW_PBE H 15Jun2001                   :
 energy of atom  1       EATOM=  -12.4884
 kinetic energy error for atom=    0.0014 (will be added to EATOM!!)
  PAW_PBE W 08Apr2002                   :
 energy of atom  2       EATOM= -204.6103
 kinetic energy error for atom=    0.0014 (will be added to EATOM!!)
 
 
 POSCAR: H6 W2                                   
  positions in direct lattice
  velocities in cartesian coordinates
 exchange correlation table for  LEXCH =        8
   RHO(1)=    0.500       N(1)  =     2000
   RHO(2)=  100.500       N(2)  =     4000
 


--------------------------------------------------------------------------------------------------------


 ion  position               nearest neighbor table
   1  0.447  0.750  0.797-   7 1.93   7 1.93
   2  0.553  0.250  0.203-   8 1.93   8 1.93
   3  0.096  0.750  0.204-   8 1.92   8 1.94
   4  0.904  0.250  0.796-   7 1.92   7 1.94
   5  0.080  0.250  0.372-   7 1.81   8 1.98   8 1.98
   6  0.920  0.750  0.628-   8 1.81   7 1.98   7 1.98
   7  0.327  0.250  0.628-   5 1.81   4 1.92   1 1.93   1 1.93   4 1.94   6 1.98   6 1.98   8 2.75
                             8 2.75   8 2.85   8 2.85
   8  0.673  0.750  0.372-   6 1.81   3 1.92   2 1.93   2 1.93   3 1.94   5 1.98   5 1.98   7 2.75
                             7 2.75   7 2.85   7 2.85
 
  LATTYP: Found a simple monoclinic cell.
 ALAT       =     7.1203685998
 B/A-ratio  =     0.4293958337
 C/A-ratio  =     1.9503863106
 COS(beta)  =    -0.9764551425
  
  Lattice vectors:
  
 A1 = (   0.0000000000,  -1.7361381160,   6.9054669240)
 A2 = (  -3.0574566111,   0.0000000000,   0.0000000000)
 A3 = (   0.0000000000,   0.4010187071, -13.8816782681)


Analysis of symmetry for initial positions (statically):
=====================================================================
 Subroutine PRICEL returns:
 Original cell was already a primitive cell.
 

 Routine SETGRP: Setting up the symmetry group for a 
 simple monoclinic supercell.


 Subroutine GETGRP returns: Found  4 space group operations
 (whereof  2 operations were pure point group operations)
 out of a pool of  4 trial point group operations.


The static configuration has the point symmetry S_2 .
 The point group associated with its full space group is C_2h.


Analysis of symmetry for dynamics (positions and initial velocities):
=====================================================================
 Subroutine PRICEL returns:
 Original cell was already a primitive cell.
 

 Routine SETGRP: Setting up the symmetry group for a 
 simple monoclinic supercell.


 Subroutine GETGRP returns: Found  4 space group operations
 (whereof  2 operations were pure point group operations)
 out of a pool of  4 trial point group operations.


The dynamic configuration has the point symmetry S_2 .
 The point group associated with its full space group is C_2h.


Analysis of magnetic symmetry:
=====================================================================
 Subroutine PRICEL returns:
 Original cell was already a primitive cell.
 

 Subroutine MAGSYM returns: Found  4 space group operations
 (whereof  2 operations were pure point group operations)
 out of a pool of  4 trial space group operations
 (whereof  2 operations were pure point group operations)
 and found also     1 'primitive' translations


The magnetic configuration has the point symmetry S_2 .
 The point group associated with its full space group is C_2h.
 
 
 KPOINTS: K-Mesh                                  

Automatic generation of k-mesh.
Space group operators:
 irot       det(A)        alpha          n_x          n_y          n_z        tau_x        tau_y        tau_z
    1     1.000000     0.000000     1.000000     0.000000     0.000000     0.000000     0.000000     0.000000
    2    -1.000000     0.000000     1.000000     0.000000     0.000000     0.000000     0.000000     0.000000
    3     1.000000   180.000000     1.000000     0.000000     0.000000     0.000000    -0.500000     0.000000
    4    -1.000000   180.000000     1.000000     0.000000     0.000000     0.000000    -0.500000     0.000000
 
 Subroutine IBZKPT returns following result:
 ===========================================
 
 Found    540 irreducible k-points:
 
 Following reciprocal coordinates:
            Coordinates               Weight
  0.000000  0.000000  0.000000      1.000000
  0.058824  0.000000  0.000000      2.000000
  0.117647  0.000000  0.000000      2.000000
  0.176471  0.000000  0.000000      2.000000
  0.235294  0.000000  0.000000      2.000000
  0.294118  0.000000  0.000000      2.000000
  0.352941  0.000000  0.000000      2.000000
  0.411765  0.000000  0.000000      2.000000
  0.470588  0.000000  0.000000      2.000000
  0.000000  0.062500  0.000000      2.000000
  0.058824  0.062500  0.000000      4.000000
  0.117647  0.062500  0.000000      4.000000
  0.176471  0.062500  0.000000      4.000000
  0.235294  0.062500  0.000000      4.000000
  0.294118  0.062500  0.000000      4.000000
  0.352941  0.062500  0.000000      4.000000
  0.411765  0.062500  0.000000      4.000000
  0.470588  0.062500  0.000000      4.000000
  0.000000  0.125000  0.000000      2.000000
  0.058824  0.125000  0.000000      4.000000
  0.117647  0.125000  0.000000      4.000000
  0.176471  0.125000  0.000000      4.000000
  0.235294  0.125000  0.000000      4.000000
  0.294118  0.125000  0.000000      4.000000
  0.352941  0.125000  0.000000      4.000000
  0.411765  0.125000  0.000000      4.000000
  0.470588  0.125000  0.000000      4.000000
  0.000000  0.187500  0.000000      2.000000
  0.058824  0.187500  0.000000      4.000000
  0.117647  0.187500  0.000000      4.000000
  0.176471  0.187500  0.000000      4.000000
  0.235294  0.187500  0.000000      4.000000
  0.294118  0.187500  0.000000      4.000000
  0.352941  0.187500  0.000000      4.000000
  0.411765  0.187500  0.000000      4.000000
  0.470588  0.187500  0.000000      4.000000
  0.000000  0.250000  0.000000      2.000000
  0.058824  0.250000  0.000000      4.000000
  0.117647  0.250000  0.000000      4.000000
  0.176471  0.250000  0.000000      4.000000
  0.235294  0.250000  0.000000      4.000000
  0.294118  0.250000  0.000000      4.000000
  0.352941  0.250000  0.000000      4.000000
  0.411765  0.250000  0.000000      4.000000
  0.470588  0.250000  0.000000      4.000000
  0.000000  0.312500  0.000000      2.000000
  0.058824  0.312500  0.000000      4.000000
  0.117647  0.312500  0.000000      4.000000
  0.176471  0.312500  0.000000      4.000000
  0.235294  0.312500  0.000000      4.000000
  0.294118  0.312500  0.000000      4.000000
  0.352941  0.312500  0.000000      4.000000
  0.411765  0.312500  0.000000      4.000000
  0.470588  0.312500  0.000000      4.000000
  0.000000  0.375000  0.000000      2.000000
  0.058824  0.375000  0.000000      4.000000
  0.117647  0.375000  0.000000      4.000000
  0.176471  0.375000  0.000000      4.000000
  0.235294  0.375000  0.000000      4.000000
  0.294118  0.375000  0.000000      4.000000
  0.352941  0.375000  0.000000      4.000000
  0.411765  0.375000  0.000000      4.000000
  0.470588  0.375000  0.000000      4.000000
  0.000000  0.437500  0.000000      2.000000
  0.058824  0.437500  0.000000      4.000000
  0.117647  0.437500  0.000000      4.000000
  0.176471  0.437500  0.000000      4.000000
  0.235294  0.437500  0.000000      4.000000
  0.294118  0.437500  0.000000      4.000000
  0.352941  0.437500  0.000000      4.000000
  0.411765  0.437500  0.000000      4.000000
  0.470588  0.437500  0.000000      4.000000
  0.000000  0.500000  0.000000      1.000000
  0.058824  0.500000  0.000000      2.000000
  0.117647  0.500000  0.000000      2.000000
  0.176471  0.500000  0.000000      2.000000
  0.235294  0.500000  0.000000      2.000000
  0.294118  0.500000  0.000000      2.000000
  0.352941  0.500000  0.000000      2.000000
  0.411765  0.500000  0.000000      2.000000
  0.470588  0.500000  0.000000      2.000000
  0.000000  0.000000  0.142857      2.000000
  0.058824  0.000000  0.142857      2.000000
  0.117647  0.000000  0.142857      2.000000
  0.176471  0.000000  0.142857      2.000000
  0.235294  0.000000  0.142857      2.000000
  0.294118  0.000000  0.142857      2.000000
  0.352941  0.000000  0.142857      2.000000
  0.411765  0.000000  0.142857      2.000000
  0.470588  0.000000  0.142857      2.000000
 -0.470588  0.000000  0.142857      2.000000
 -0.411765  0.000000  0.142857      2.000000
 -0.352941  0.000000  0.142857      2.000000
 -0.294118  0.000000  0.142857      2.000000
 -0.235294  0.000000  0.142857      2.000000
 -0.176471  0.000000  0.142857      2.000000
 -0.117647  0.000000  0.142857      2.000000
 -0.058824  0.000000  0.142857      2.000000
  0.000000  0.062500  0.142857      4.000000
  0.058824  0.062500  0.142857      4.000000
  0.117647  0.062500  0.142857      4.000000
  0.176471  0.062500  0.142857      4.000000
  0.235294  0.062500  0.142857      4.000000
  0.294118  0.062500  0.142857      4.000000
  0.352941  0.062500  0.142857      4.000000
  0.411765  0.062500  0.142857      4.000000
  0.470588  0.062500  0.142857      4.000000
 -0.470588  0.062500  0.142857      4.000000
 -0.411765  0.062500  0.142857      4.000000
 -0.352941  0.062500  0.142857      4.000000
 -0.294118  0.062500  0.142857      4.000000
 -0.235294  0.062500  0.142857      4.000000
 -0.176471  0.062500  0.142857      4.000000
 -0.117647  0.062500  0.142857      4.000000
 -0.058824  0.062500  0.142857      4.000000
  0.000000  0.125000  0.142857      4.000000
  0.058824  0.125000  0.142857      4.000000
  0.117647  0.125000  0.142857      4.000000
  0.176471  0.125000  0.142857      4.000000
  0.235294  0.125000  0.142857      4.000000
  0.294118  0.125000  0.142857      4.000000
  0.352941  0.125000  0.142857      4.000000
  0.411765  0.125000  0.142857      4.000000
  0.470588  0.125000  0.142857      4.000000
 -0.470588  0.125000  0.142857      4.000000
 -0.411765  0.125000  0.142857      4.000000
 -0.352941  0.125000  0.142857      4.000000
 -0.294118  0.125000  0.142857      4.000000
 -0.235294  0.125000  0.142857      4.000000
 -0.176471  0.125000  0.142857      4.000000
 -0.117647  0.125000  0.142857      4.000000
 -0.058824  0.125000  0.142857      4.000000
  0.000000  0.187500  0.142857      4.000000
  0.058824  0.187500  0.142857      4.000000
  0.117647  0.187500  0.142857      4.000000
  0.176471  0.187500  0.142857      4.000000
  0.235294  0.187500  0.142857      4.000000
  0.294118  0.187500  0.142857      4.000000
  0.352941  0.187500  0.142857      4.000000
  0.411765  0.187500  0.142857      4.000000
  0.470588  0.187500  0.142857      4.000000
 -0.470588  0.187500  0.142857      4.000000
 -0.411765  0.187500  0.142857      4.000000
 -0.352941  0.187500  0.142857      4.000000
 -0.294118  0.187500  0.142857      4.000000
 -0.235294  0.187500  0.142857      4.000000
 -0.176471  0.187500  0.142857      4.000000
 -0.117647  0.187500  0.142857      4.000000
 -0.058824  0.187500  0.142857      4.000000
  0.000000  0.250000  0.142857      4.000000
  0.058824  0.250000  0.142857      4.000000
  0.117647  0.250000  0.142857      4.000000
  0.176471  0.250000  0.142857      4.000000
  0.235294  0.250000  0.142857      4.000000
  0.294118  0.250000  0.142857      4.000000
  0.352941  0.250000  0.142857      4.000000
  0.411765  0.250000  0.142857      4.000000
  0.470588  0.250000  0.142857      4.000000
 -0.470588  0.250000  0.142857      4.000000
 -0.411765  0.250000  0.142857      4.000000
 -0.352941  0.250000  0.142857      4.000000
 -0.294118  0.250000  0.142857      4.000000
 -0.235294  0.250000  0.142857      4.000000
 -0.176471  0.250000  0.142857      4.000000
 -0.117647  0.250000  0.142857      4.000000
 -0.058824  0.250000  0.142857      4.000000
  0.000000  0.312500  0.142857      4.000000
  0.058824  0.312500  0.142857      4.000000
  0.117647  0.312500  0.142857      4.000000
  0.176471  0.312500  0.142857      4.000000
  0.235294  0.312500  0.142857      4.000000
  0.294118  0.312500  0.142857      4.000000
  0.352941  0.312500  0.142857      4.000000
  0.411765  0.312500  0.142857      4.000000
  0.470588  0.312500  0.142857      4.000000
 -0.470588  0.312500  0.142857      4.000000
 -0.411765  0.312500  0.142857      4.000000
 -0.352941  0.312500  0.142857      4.000000
 -0.294118  0.312500  0.142857      4.000000
 -0.235294  0.312500  0.142857      4.000000
 -0.176471  0.312500  0.142857      4.000000
 -0.117647  0.312500  0.142857      4.000000
 -0.058824  0.312500  0.142857      4.000000
  0.000000  0.375000  0.142857      4.000000
  0.058824  0.375000  0.142857      4.000000
  0.117647  0.375000  0.142857      4.000000
  0.176471  0.375000  0.142857      4.000000
  0.235294  0.375000  0.142857      4.000000
  0.294118  0.375000  0.142857      4.000000
  0.352941  0.375000  0.142857      4.000000
  0.411765  0.375000  0.142857      4.000000
  0.470588  0.375000  0.142857      4.000000
 -0.470588  0.375000  0.142857      4.000000
 -0.411765  0.375000  0.142857      4.000000
 -0.352941  0.375000  0.142857      4.000000
 -0.294118  0.375000  0.142857      4.000000
 -0.235294  0.375000  0.142857      4.000000
 -0.176471  0.375000  0.142857      4.000000
 -0.117647  0.375000  0.142857      4.000000
 -0.058824  0.375000  0.142857      4.000000
  0.000000  0.437500  0.142857      4.000000
  0.058824  0.437500  0.142857      4.000000
  0.117647  0.437500  0.142857      4.000000
  0.176471  0.437500  0.142857      4.000000
  0.235294  0.437500  0.142857      4.000000
  0.294118  0.437500  0.142857      4.000000
  0.352941  0.437500  0.142857      4.000000
  0.411765  0.437500  0.142857      4.000000
  0.470588  0.437500  0.142857      4.000000
 -0.470588  0.437500  0.142857      4.000000
 -0.411765  0.437500  0.142857      4.000000
 -0.352941  0.437500  0.142857      4.000000
 -0.294118  0.437500  0.142857      4.000000
 -0.235294  0.437500  0.142857      4.000000
 -0.176471  0.437500  0.142857      4.000000
 -0.117647  0.437500  0.142857      4.000000
 -0.058824  0.437500  0.142857      4.000000
  0.000000  0.500000  0.142857      2.000000
  0.058824  0.500000  0.142857      2.000000
  0.117647  0.500000  0.142857      2.000000
  0.176471  0.500000  0.142857      2.000000
  0.235294  0.500000  0.142857      2.000000
  0.294118  0.500000  0.142857      2.000000
  0.352941  0.500000  0.142857      2.000000
  0.411765  0.500000  0.142857      2.000000
  0.470588  0.500000  0.142857      2.000000
 -0.470588  0.500000  0.142857      2.000000
 -0.411765  0.500000  0.142857      2.000000
 -0.352941  0.500000  0.142857      2.000000
 -0.294118  0.500000  0.142857      2.000000
 -0.235294  0.500000  0.142857      2.000000
 -0.176471  0.500000  0.142857      2.000000
 -0.117647  0.500000  0.142857      2.000000
 -0.058824  0.500000  0.142857      2.000000
  0.000000  0.000000  0.285714      2.000000
  0.058824  0.000000  0.285714      2.000000
  0.117647  0.000000  0.285714      2.000000
  0.176471  0.000000  0.285714      2.000000
  0.235294  0.000000  0.285714      2.000000
  0.294118  0.000000  0.285714      2.000000
  0.352941  0.000000  0.285714      2.000000
  0.411765  0.000000  0.285714      2.000000
  0.470588  0.000000  0.285714      2.000000
 -0.470588  0.000000  0.285714      2.000000
 -0.411765  0.000000  0.285714      2.000000
 -0.352941  0.000000  0.285714      2.000000
 -0.294118  0.000000  0.285714      2.000000
 -0.235294  0.000000  0.285714      2.000000
 -0.176471  0.000000  0.285714      2.000000
 -0.117647  0.000000  0.285714      2.000000
 -0.058824  0.000000  0.285714      2.000000
  0.000000  0.062500  0.285714      4.000000
  0.058824  0.062500  0.285714      4.000000
  0.117647  0.062500  0.285714      4.000000
  0.176471  0.062500  0.285714      4.000000
  0.235294  0.062500  0.285714      4.000000
  0.294118  0.062500  0.285714      4.000000
  0.352941  0.062500  0.285714      4.000000
  0.411765  0.062500  0.285714      4.000000
  0.470588  0.062500  0.285714      4.000000
 -0.470588  0.062500  0.285714      4.000000
 -0.411765  0.062500  0.285714      4.000000
 -0.352941  0.062500  0.285714      4.000000
 -0.294118  0.062500  0.285714      4.000000
 -0.235294  0.062500  0.285714      4.000000
 -0.176471  0.062500  0.285714      4.000000
 -0.117647  0.062500  0.285714      4.000000
 -0.058824  0.062500  0.285714      4.000000
  0.000000  0.125000  0.285714      4.000000
  0.058824  0.125000  0.285714      4.000000
  0.117647  0.125000  0.285714      4.000000
  0.176471  0.125000  0.285714      4.000000
  0.235294  0.125000  0.285714      4.000000
  0.294118  0.125000  0.285714      4.000000
  0.352941  0.125000  0.285714      4.000000
  0.411765  0.125000  0.285714      4.000000
  0.470588  0.125000  0.285714      4.000000
 -0.470588  0.125000  0.285714      4.000000
 -0.411765  0.125000  0.285714      4.000000
 -0.352941  0.125000  0.285714      4.000000
 -0.294118  0.125000  0.285714      4.000000
 -0.235294  0.125000  0.285714      4.000000
 -0.176471  0.125000  0.285714      4.000000
 -0.117647  0.125000  0.285714      4.000000
 -0.058824  0.125000  0.285714      4.000000
  0.000000  0.187500  0.285714      4.000000
  0.058824  0.187500  0.285714      4.000000
  0.117647  0.187500  0.285714      4.000000
  0.176471  0.187500  0.285714      4.000000
  0.235294  0.187500  0.285714      4.000000
  0.294118  0.187500  0.285714      4.000000
  0.352941  0.187500  0.285714      4.000000
  0.411765  0.187500  0.285714      4.000000
  0.470588  0.187500  0.285714      4.000000
 -0.470588  0.187500  0.285714      4.000000
 -0.411765  0.187500  0.285714      4.000000
 -0.352941  0.187500  0.285714      4.000000
 -0.294118  0.187500  0.285714      4.000000
 -0.235294  0.187500  0.285714      4.000000
 -0.176471  0.187500  0.285714      4.000000
 -0.117647  0.187500  0.285714      4.000000
 -0.058824  0.187500  0.285714      4.000000
  0.000000  0.250000  0.285714      4.000000
  0.058824  0.250000  0.285714      4.000000
  0.117647  0.250000  0.285714      4.000000
  0.176471  0.250000  0.285714      4.000000
  0.235294  0.250000  0.285714      4.000000
  0.294118  0.250000  0.285714      4.000000
  0.352941  0.250000  0.285714      4.000000
  0.411765  0.250000  0.285714      4.000000
  0.470588  0.250000  0.285714      4.000000
 -0.470588  0.250000  0.285714      4.000000
 -0.411765  0.250000  0.285714      4.000000
 -0.352941  0.250000  0.285714      4.000000
 -0.294118  0.250000  0.285714      4.000000
 -0.235294  0.250000  0.285714      4.000000
 -0.176471  0.250000  0.285714      4.000000
 -0.117647  0.250000  0.285714      4.000000
 -0.058824  0.250000  0.285714      4.000000
  0.000000  0.312500  0.285714      4.000000
  0.058824  0.312500  0.285714      4.000000
  0.117647  0.312500  0.285714      4.000000
  0.176471  0.312500  0.285714      4.000000
  0.235294  0.312500  0.285714      4.000000
  0.294118  0.312500  0.285714      4.000000
  0.352941  0.312500  0.285714      4.000000
  0.411765  0.312500  0.285714      4.000000
  0.470588  0.312500  0.285714      4.000000
 -0.470588  0.312500  0.285714      4.000000
 -0.411765  0.312500  0.285714      4.000000
 -0.352941  0.312500  0.285714      4.000000
 -0.294118  0.312500  0.285714      4.000000
 -0.235294  0.312500  0.285714      4.000000
 -0.176471  0.312500  0.285714      4.000000
 -0.117647  0.312500  0.285714      4.000000
 -0.058824  0.312500  0.285714      4.000000
  0.000000  0.375000  0.285714      4.000000
  0.058824  0.375000  0.285714      4.000000
  0.117647  0.375000  0.285714      4.000000
  0.176471  0.375000  0.285714      4.000000
  0.235294  0.375000  0.285714      4.000000
  0.294118  0.375000  0.285714      4.000000
  0.352941  0.375000  0.285714      4.000000
  0.411765  0.375000  0.285714      4.000000
  0.470588  0.375000  0.285714      4.000000
 -0.470588  0.375000  0.285714      4.000000
 -0.411765  0.375000  0.285714      4.000000
 -0.352941  0.375000  0.285714      4.000000
 -0.294118  0.375000  0.285714      4.000000
 -0.235294  0.375000  0.285714      4.000000
 -0.176471  0.375000  0.285714      4.000000
 -0.117647  0.375000  0.285714      4.000000
 -0.058824  0.375000  0.285714      4.000000
  0.000000  0.437500  0.285714      4.000000
  0.058824  0.437500  0.285714      4.000000
  0.117647  0.437500  0.285714      4.000000
  0.176471  0.437500  0.285714      4.000000
  0.235294  0.437500  0.285714      4.000000
  0.294118  0.437500  0.285714      4.000000
  0.352941  0.437500  0.285714      4.000000
  0.411765  0.437500  0.285714      4.000000
  0.470588  0.437500  0.285714      4.000000
 -0.470588  0.437500  0.285714      4.000000
 -0.411765  0.437500  0.285714      4.000000
 -0.352941  0.437500  0.285714      4.000000
 -0.294118  0.437500  0.285714      4.000000
 -0.235294  0.437500  0.285714      4.000000
 -0.176471  0.437500  0.285714      4.000000
 -0.117647  0.437500  0.285714      4.000000
 -0.058824  0.437500  0.285714      4.000000
  0.000000  0.500000  0.285714      2.000000
  0.058824  0.500000  0.285714      2.000000
  0.117647  0.500000  0.285714      2.000000
  0.176471  0.500000  0.285714      2.000000
  0.235294  0.500000  0.285714      2.000000
  0.294118  0.500000  0.285714      2.000000
  0.352941  0.500000  0.285714      2.000000
  0.411765  0.500000  0.285714      2.000000
  0.470588  0.500000  0.285714      2.000000
 -0.470588  0.500000  0.285714      2.000000
 -0.411765  0.500000  0.285714      2.000000
 -0.352941  0.500000  0.285714      2.000000
 -0.294118  0.500000  0.285714      2.000000
 -0.235294  0.500000  0.285714      2.000000
 -0.176471  0.500000  0.285714      2.000000
 -0.117647  0.500000  0.285714      2.000000
 -0.058824  0.500000  0.285714      2.000000
  0.000000  0.000000  0.428571      2.000000
  0.058824  0.000000  0.428571      2.000000
  0.117647  0.000000  0.428571      2.000000
  0.176471  0.000000  0.428571      2.000000
  0.235294  0.000000  0.428571      2.000000
  0.294118  0.000000  0.428571      2.000000
  0.352941  0.000000  0.428571      2.000000
  0.411765  0.000000  0.428571      2.000000
  0.470588  0.000000  0.428571      2.000000
 -0.470588  0.000000  0.428571      2.000000
 -0.411765  0.000000  0.428571      2.000000
 -0.352941  0.000000  0.428571      2.000000
 -0.294118  0.000000  0.428571      2.000000
 -0.235294  0.000000  0.428571      2.000000
 -0.176471  0.000000  0.428571      2.000000
 -0.117647  0.000000  0.428571      2.000000
 -0.058824  0.000000  0.428571      2.000000
  0.000000  0.062500  0.428571      4.000000
  0.058824  0.062500  0.428571      4.000000
  0.117647  0.062500  0.428571      4.000000
  0.176471  0.062500  0.428571      4.000000
  0.235294  0.062500  0.428571      4.000000
  0.294118  0.062500  0.428571      4.000000
  0.352941  0.062500  0.428571      4.000000
  0.411765  0.062500  0.428571      4.000000
  0.470588  0.062500  0.428571      4.000000
 -0.470588  0.062500  0.428571      4.000000
 -0.411765  0.062500  0.428571      4.000000
 -0.352941  0.062500  0.428571      4.000000
 -0.294118  0.062500  0.428571      4.000000
 -0.235294  0.062500  0.428571      4.000000
 -0.176471  0.062500  0.428571      4.000000
 -0.117647  0.062500  0.428571      4.000000
 -0.058824  0.062500  0.428571      4.000000
  0.000000  0.125000  0.428571      4.000000
  0.058824  0.125000  0.428571      4.000000
  0.117647  0.125000  0.428571      4.000000
  0.176471  0.125000  0.428571      4.000000
  0.235294  0.125000  0.428571      4.000000
  0.294118  0.125000  0.428571      4.000000
  0.352941  0.125000  0.428571      4.000000
  0.411765  0.125000  0.428571      4.000000
  0.470588  0.125000  0.428571      4.000000
 -0.470588  0.125000  0.428571      4.000000
 -0.411765  0.125000  0.428571      4.000000
 -0.352941  0.125000  0.428571      4.000000
 -0.294118  0.125000  0.428571      4.000000
 -0.235294  0.125000  0.428571      4.000000
 -0.176471  0.125000  0.428571      4.000000
 -0.117647  0.125000  0.428571      4.000000
 -0.058824  0.125000  0.428571      4.000000
  0.000000  0.187500  0.428571      4.000000
  0.058824  0.187500  0.428571      4.000000
  0.117647  0.187500  0.428571      4.000000
  0.176471  0.187500  0.428571      4.000000
  0.235294  0.187500  0.428571      4.000000
  0.294118  0.187500  0.428571      4.000000
  0.352941  0.187500  0.428571      4.000000
  0.411765  0.187500  0.428571      4.000000
  0.470588  0.187500  0.428571      4.000000
 -0.470588  0.187500  0.428571      4.000000
 -0.411765  0.187500  0.428571      4.000000
 -0.352941  0.187500  0.428571      4.000000
 -0.294118  0.187500  0.428571      4.000000
 -0.235294  0.187500  0.428571      4.000000
 -0.176471  0.187500  0.428571      4.000000
 -0.117647  0.187500  0.428571      4.000000
 -0.058824  0.187500  0.428571      4.000000
  0.000000  0.250000  0.428571      4.000000
  0.058824  0.250000  0.428571      4.000000
  0.117647  0.250000  0.428571      4.000000
  0.176471  0.250000  0.428571      4.000000
  0.235294  0.250000  0.428571      4.000000
  0.294118  0.250000  0.428571      4.000000
  0.352941  0.250000  0.428571      4.000000
  0.411765  0.250000  0.428571      4.000000
  0.470588  0.250000  0.428571      4.000000
 -0.470588  0.250000  0.428571      4.000000
 -0.411765  0.250000  0.428571      4.000000
 -0.352941  0.250000  0.428571      4.000000
 -0.294118  0.250000  0.428571      4.000000
 -0.235294  0.250000  0.428571      4.000000
 -0.176471  0.250000  0.428571      4.000000
 -0.117647  0.250000  0.428571      4.000000
 -0.058824  0.250000  0.428571      4.000000
  0.000000  0.312500  0.428571      4.000000
  0.058824  0.312500  0.428571      4.000000
  0.117647  0.312500  0.428571      4.000000
  0.176471  0.312500  0.428571      4.000000
  0.235294  0.312500  0.428571      4.000000
  0.294118  0.312500  0.428571      4.000000
  0.352941  0.312500  0.428571      4.000000
  0.411765  0.312500  0.428571      4.000000
  0.470588  0.312500  0.428571      4.000000
 -0.470588  0.312500  0.428571      4.000000
 -0.411765  0.312500  0.428571      4.000000
 -0.352941  0.312500  0.428571      4.000000
 -0.294118  0.312500  0.428571      4.000000
 -0.235294  0.312500  0.428571      4.000000
 -0.176471  0.312500  0.428571      4.000000
 -0.117647  0.312500  0.428571      4.000000
 -0.058824  0.312500  0.428571      4.000000
  0.000000  0.375000  0.428571      4.000000
  0.058824  0.375000  0.428571      4.000000
  0.117647  0.375000  0.428571      4.000000
  0.176471  0.375000  0.428571      4.000000
  0.235294  0.375000  0.428571      4.000000
  0.294118  0.375000  0.428571      4.000000
  0.352941  0.375000  0.428571      4.000000
  0.411765  0.375000  0.428571      4.000000
  0.470588  0.375000  0.428571      4.000000
 -0.470588  0.375000  0.428571      4.000000
 -0.411765  0.375000  0.428571      4.000000
 -0.352941  0.375000  0.428571      4.000000
 -0.294118  0.375000  0.428571      4.000000
 -0.235294  0.375000  0.428571      4.000000
 -0.176471  0.375000  0.428571      4.000000
 -0.117647  0.375000  0.428571      4.000000
 -0.058824  0.375000  0.428571      4.000000
  0.000000  0.437500  0.428571      4.000000
  0.058824  0.437500  0.428571      4.000000
  0.117647  0.437500  0.428571      4.000000
  0.176471  0.437500  0.428571      4.000000
  0.235294  0.437500  0.428571      4.000000
  0.294118  0.437500  0.428571      4.000000
  0.352941  0.437500  0.428571      4.000000
  0.411765  0.437500  0.428571      4.000000
  0.470588  0.437500  0.428571      4.000000
 -0.470588  0.437500  0.428571      4.000000
 -0.411765  0.437500  0.428571      4.000000
 -0.352941  0.437500  0.428571      4.000000
 -0.294118  0.437500  0.428571      4.000000
 -0.235294  0.437500  0.428571      4.000000
 -0.176471  0.437500  0.428571      4.000000
 -0.117647  0.437500  0.428571      4.000000
 -0.058824  0.437500  0.428571      4.000000
  0.000000  0.500000  0.428571      2.000000
  0.058824  0.500000  0.428571      2.000000
  0.117647  0.500000  0.428571      2.000000
  0.176471  0.500000  0.428571      2.000000
  0.235294  0.500000  0.428571      2.000000
  0.294118  0.500000  0.428571      2.000000
  0.352941  0.500000  0.428571      2.000000
  0.411765  0.500000  0.428571      2.000000
  0.470588  0.500000  0.428571      2.000000
 -0.470588  0.500000  0.428571      2.000000
 -0.411765  0.500000  0.428571      2.000000
 -0.352941  0.500000  0.428571      2.000000
 -0.294118  0.500000  0.428571      2.000000
 -0.235294  0.500000  0.428571      2.000000
 -0.176471  0.500000  0.428571      2.000000
 -0.117647  0.500000  0.428571      2.000000
 -0.058824  0.500000  0.428571      2.000000
 
 Following cartesian coordinates:
            Coordinates               Weight
  0.000000  0.000000 -0.000000      1.000000
  0.000000  0.019238 -0.003682      2.000000
  0.000000  0.038475 -0.007363      2.000000
  0.000000  0.057713 -0.011045      2.000000
  0.000000  0.076951 -0.014727      2.000000
  0.000000  0.096189 -0.018409      2.000000
  0.000000  0.115426 -0.022090      2.000000
  0.000000  0.134664 -0.025772      2.000000
  0.000000  0.153902 -0.029454      2.000000
  0.020442  0.000000 -0.000000      2.000000
  0.020442  0.019238 -0.003682      4.000000
  0.020442  0.038475 -0.007363      4.000000
  0.020442  0.057713 -0.011045      4.000000
  0.020442  0.076951 -0.014727      4.000000
  0.020442  0.096189 -0.018409      4.000000
  0.020442  0.115426 -0.022090      4.000000
  0.020442  0.134664 -0.025772      4.000000
  0.020442  0.153902 -0.029454      4.000000
  0.040884  0.000000 -0.000000      2.000000
  0.040884  0.019238 -0.003682      4.000000
  0.040884  0.038475 -0.007363      4.000000
  0.040884  0.057713 -0.011045      4.000000
  0.040884  0.076951 -0.014727      4.000000
  0.040884  0.096189 -0.018409      4.000000
  0.040884  0.115426 -0.022090      4.000000
  0.040884  0.134664 -0.025772      4.000000
  0.040884  0.153902 -0.029454      4.000000
  0.061325  0.000000 -0.000000      2.000000
  0.061325  0.019238 -0.003682      4.000000
  0.061325  0.038475 -0.007363      4.000000
  0.061325  0.057713 -0.011045      4.000000
  0.061325  0.076951 -0.014727      4.000000
  0.061325  0.096189 -0.018409      4.000000
  0.061325  0.115426 -0.022090      4.000000
  0.061325  0.134664 -0.025772      4.000000
  0.061325  0.153902 -0.029454      4.000000
  0.081767  0.000000 -0.000000      2.000000
  0.081767  0.019238 -0.003682      4.000000
  0.081767  0.038475 -0.007363      4.000000
  0.081767  0.057713 -0.011045      4.000000
  0.081767  0.076951 -0.014727      4.000000
  0.081767  0.096189 -0.018409      4.000000
  0.081767  0.115426 -0.022090      4.000000
  0.081767  0.134664 -0.025772      4.000000
  0.081767  0.153902 -0.029454      4.000000
  0.102209  0.000000 -0.000000      2.000000
  0.102209  0.019238 -0.003682      4.000000
  0.102209  0.038475 -0.007363      4.000000
  0.102209  0.057713 -0.011045      4.000000
  0.102209  0.076951 -0.014727      4.000000
  0.102209  0.096189 -0.018409      4.000000
  0.102209  0.115426 -0.022090      4.000000
  0.102209  0.134664 -0.025772      4.000000
  0.102209  0.153902 -0.029454      4.000000
  0.122651  0.000000 -0.000000      2.000000
  0.122651  0.019238 -0.003682      4.000000
  0.122651  0.038475 -0.007363      4.000000
  0.122651  0.057713 -0.011045      4.000000
  0.122651  0.076951 -0.014727      4.000000
  0.122651  0.096189 -0.018409      4.000000
  0.122651  0.115426 -0.022090      4.000000
  0.122651  0.134664 -0.025772      4.000000
  0.122651  0.153902 -0.029454      4.000000
  0.143093  0.000000 -0.000000      2.000000
  0.143093  0.019238 -0.003682      4.000000
  0.143093  0.038475 -0.007363      4.000000
  0.143093  0.057713 -0.011045      4.000000
  0.143093  0.076951 -0.014727      4.000000
  0.143093  0.096189 -0.018409      4.000000
  0.143093  0.115426 -0.022090      4.000000
  0.143093  0.134664 -0.025772      4.000000
  0.143093  0.153902 -0.029454      4.000000
  0.163535  0.000000 -0.000000      1.000000
  0.163535  0.019238 -0.003682      2.000000
  0.163535  0.038475 -0.007363      2.000000
  0.163535  0.057713 -0.011045      2.000000
  0.163535  0.076951 -0.014727      2.000000
  0.163535  0.096189 -0.018409      2.000000
  0.163535  0.115426 -0.022090      2.000000
  0.163535  0.134664 -0.025772      2.000000
  0.163535  0.153902 -0.029454      2.000000
  0.000000  0.000474 -0.020568      2.000000
  0.000000  0.019712 -0.024250      2.000000
  0.000000  0.038949 -0.027932      2.000000
  0.000000  0.058187 -0.031614      2.000000
  0.000000  0.077425 -0.035295      2.000000
  0.000000  0.096662 -0.038977      2.000000
  0.000000  0.115900 -0.042659      2.000000
  0.000000  0.135138 -0.046341      2.000000
  0.000000  0.154376 -0.050022      2.000000
  0.000000 -0.153428  0.008886      2.000000
  0.000000 -0.134190  0.005204      2.000000
  0.000000 -0.114953  0.001522      2.000000
  0.000000 -0.095715 -0.002160      2.000000
  0.000000 -0.076477 -0.005841      2.000000
  0.000000 -0.057239 -0.009523      2.000000
  0.000000 -0.038002 -0.013205      2.000000
  0.000000 -0.018764 -0.016887      2.000000
  0.020442  0.000474 -0.020568      4.000000
  0.020442  0.019712 -0.024250      4.000000
  0.020442  0.038949 -0.027932      4.000000
  0.020442  0.058187 -0.031614      4.000000
  0.020442  0.077425 -0.035295      4.000000
  0.020442  0.096662 -0.038977      4.000000
  0.020442  0.115900 -0.042659      4.000000
  0.020442  0.135138 -0.046341      4.000000
  0.020442  0.154376 -0.050022      4.000000
  0.020442 -0.153428  0.008886      4.000000
  0.020442 -0.134190  0.005204      4.000000
  0.020442 -0.114953  0.001522      4.000000
  0.020442 -0.095715 -0.002160      4.000000
  0.020442 -0.076477 -0.005841      4.000000
  0.020442 -0.057239 -0.009523      4.000000
  0.020442 -0.038002 -0.013205      4.000000
  0.020442 -0.018764 -0.016887      4.000000
  0.040884  0.000474 -0.020568      4.000000
  0.040884  0.019712 -0.024250      4.000000
  0.040884  0.038949 -0.027932      4.000000
  0.040884  0.058187 -0.031614      4.000000
  0.040884  0.077425 -0.035295      4.000000
  0.040884  0.096662 -0.038977      4.000000
  0.040884  0.115900 -0.042659      4.000000
  0.040884  0.135138 -0.046341      4.000000
  0.040884  0.154376 -0.050022      4.000000
  0.040884 -0.153428  0.008886      4.000000
  0.040884 -0.134190  0.005204      4.000000
  0.040884 -0.114953  0.001522      4.000000
  0.040884 -0.095715 -0.002160      4.000000
  0.040884 -0.076477 -0.005841      4.000000
  0.040884 -0.057239 -0.009523      4.000000
  0.040884 -0.038002 -0.013205      4.000000
  0.040884 -0.018764 -0.016887      4.000000
  0.061325  0.000474 -0.020568      4.000000
  0.061325  0.019712 -0.024250      4.000000
  0.061325  0.038949 -0.027932      4.000000
  0.061325  0.058187 -0.031614      4.000000
  0.061325  0.077425 -0.035295      4.000000
  0.061325  0.096662 -0.038977      4.000000
  0.061325  0.115900 -0.042659      4.000000
  0.061325  0.135138 -0.046341      4.000000
  0.061325  0.154376 -0.050022      4.000000
  0.061325 -0.153428  0.008886      4.000000
  0.061325 -0.134190  0.005204      4.000000
  0.061325 -0.114953  0.001522      4.000000
  0.061325 -0.095715 -0.002160      4.000000
  0.061325 -0.076477 -0.005841      4.000000
  0.061325 -0.057239 -0.009523      4.000000
  0.061325 -0.038002 -0.013205      4.000000
  0.061325 -0.018764 -0.016887      4.000000
  0.081767  0.000474 -0.020568      4.000000
  0.081767  0.019712 -0.024250      4.000000
  0.081767  0.038949 -0.027932      4.000000
  0.081767  0.058187 -0.031614      4.000000
  0.081767  0.077425 -0.035295      4.000000
  0.081767  0.096662 -0.038977      4.000000
  0.081767  0.115900 -0.042659      4.000000
  0.081767  0.135138 -0.046341      4.000000
  0.081767  0.154376 -0.050022      4.000000
  0.081767 -0.153428  0.008886      4.000000
  0.081767 -0.134190  0.005204      4.000000
  0.081767 -0.114953  0.001522      4.000000
  0.081767 -0.095715 -0.002160      4.000000
  0.081767 -0.076477 -0.005841      4.000000
  0.081767 -0.057239 -0.009523      4.000000
  0.081767 -0.038002 -0.013205      4.000000
  0.081767 -0.018764 -0.016887      4.000000
  0.102209  0.000474 -0.020568      4.000000
  0.102209  0.019712 -0.024250      4.000000
  0.102209  0.038949 -0.027932      4.000000
  0.102209  0.058187 -0.031614      4.000000
  0.102209  0.077425 -0.035295      4.000000
  0.102209  0.096662 -0.038977      4.000000
  0.102209  0.115900 -0.042659      4.000000
  0.102209  0.135138 -0.046341      4.000000
  0.102209  0.154376 -0.050022      4.000000
  0.102209 -0.153428  0.008886      4.000000
  0.102209 -0.134190  0.005204      4.000000
  0.102209 -0.114953  0.001522      4.000000
  0.102209 -0.095715 -0.002160      4.000000
  0.102209 -0.076477 -0.005841      4.000000
  0.102209 -0.057239 -0.009523      4.000000
  0.102209 -0.038002 -0.013205      4.000000
  0.102209 -0.018764 -0.016887      4.000000
  0.122651  0.000474 -0.020568      4.000000
  0.122651  0.019712 -0.024250      4.000000
  0.122651  0.038949 -0.027932      4.000000
  0.122651  0.058187 -0.031614      4.000000
  0.122651  0.077425 -0.035295      4.000000
  0.122651  0.096662 -0.038977      4.000000
  0.122651  0.115900 -0.042659      4.000000
  0.122651  0.135138 -0.046341      4.000000
  0.122651  0.154376 -0.050022      4.000000
  0.122651 -0.153428  0.008886      4.000000
  0.122651 -0.134190  0.005204      4.000000
  0.122651 -0.114953  0.001522      4.000000
  0.122651 -0.095715 -0.002160      4.000000
  0.122651 -0.076477 -0.005841      4.000000
  0.122651 -0.057239 -0.009523      4.000000
  0.122651 -0.038002 -0.013205      4.000000
  0.122651 -0.018764 -0.016887      4.000000
  0.143093  0.000474 -0.020568      4.000000
  0.143093  0.019712 -0.024250      4.000000
  0.143093  0.038949 -0.027932      4.000000
  0.143093  0.058187 -0.031614      4.000000
  0.143093  0.077425 -0.035295      4.000000
  0.143093  0.096662 -0.038977      4.000000
  0.143093  0.115900 -0.042659      4.000000
  0.143093  0.135138 -0.046341      4.000000
  0.143093  0.154376 -0.050022      4.000000
  0.143093 -0.153428  0.008886      4.000000
  0.143093 -0.134190  0.005204      4.000000
  0.143093 -0.114953  0.001522      4.000000
  0.143093 -0.095715 -0.002160      4.000000
  0.143093 -0.076477 -0.005841      4.000000
  0.143093 -0.057239 -0.009523      4.000000
  0.143093 -0.038002 -0.013205      4.000000
  0.143093 -0.018764 -0.016887      4.000000
  0.163535  0.000474 -0.020568      2.000000
  0.163535  0.019712 -0.024250      2.000000
  0.163535  0.038949 -0.027932      2.000000
  0.163535  0.058187 -0.031614      2.000000
  0.163535  0.077425 -0.035295      2.000000
  0.163535  0.096662 -0.038977      2.000000
  0.163535  0.115900 -0.042659      2.000000
  0.163535  0.135138 -0.046341      2.000000
  0.163535  0.154376 -0.050022      2.000000
  0.163535 -0.153428  0.008886      2.000000
  0.163535 -0.134190  0.005204      2.000000
  0.163535 -0.114953  0.001522      2.000000
  0.163535 -0.095715 -0.002160      2.000000
  0.163535 -0.076477 -0.005841      2.000000
  0.163535 -0.057239 -0.009523      2.000000
  0.163535 -0.038002 -0.013205      2.000000
  0.163535 -0.018764 -0.016887      2.000000
  0.000000  0.000948 -0.041137      2.000000
  0.000000  0.020185 -0.044819      2.000000
  0.000000  0.039423 -0.048500      2.000000
  0.000000  0.058661 -0.052182      2.000000
  0.000000  0.077898 -0.055864      2.000000
  0.000000  0.097136 -0.059546      2.000000
  0.000000  0.116374 -0.063227      2.000000
  0.000000  0.135612 -0.066909      2.000000
  0.000000  0.154849 -0.070591      2.000000
  0.000000 -0.152954 -0.011683      2.000000
  0.000000 -0.133716 -0.015365      2.000000
  0.000000 -0.114479 -0.019046      2.000000
  0.000000 -0.095241 -0.022728      2.000000
  0.000000 -0.076003 -0.026410      2.000000
  0.000000 -0.056766 -0.030092      2.000000
  0.000000 -0.037528 -0.033773      2.000000
  0.000000 -0.018290 -0.037455      2.000000
  0.020442  0.000948 -0.041137      4.000000
  0.020442  0.020185 -0.044819      4.000000
  0.020442  0.039423 -0.048500      4.000000
  0.020442  0.058661 -0.052182      4.000000
  0.020442  0.077898 -0.055864      4.000000
  0.020442  0.097136 -0.059546      4.000000
  0.020442  0.116374 -0.063227      4.000000
  0.020442  0.135612 -0.066909      4.000000
  0.020442  0.154849 -0.070591      4.000000
  0.020442 -0.152954 -0.011683      4.000000
  0.020442 -0.133716 -0.015365      4.000000
  0.020442 -0.114479 -0.019046      4.000000
  0.020442 -0.095241 -0.022728      4.000000
  0.020442 -0.076003 -0.026410      4.000000
  0.020442 -0.056766 -0.030092      4.000000
  0.020442 -0.037528 -0.033773      4.000000
  0.020442 -0.018290 -0.037455      4.000000
  0.040884  0.000948 -0.041137      4.000000
  0.040884  0.020185 -0.044819      4.000000
  0.040884  0.039423 -0.048500      4.000000
  0.040884  0.058661 -0.052182      4.000000
  0.040884  0.077898 -0.055864      4.000000
  0.040884  0.097136 -0.059546      4.000000
  0.040884  0.116374 -0.063227      4.000000
  0.040884  0.135612 -0.066909      4.000000
  0.040884  0.154849 -0.070591      4.000000
  0.040884 -0.152954 -0.011683      4.000000
  0.040884 -0.133716 -0.015365      4.000000
  0.040884 -0.114479 -0.019046      4.000000
  0.040884 -0.095241 -0.022728      4.000000
  0.040884 -0.076003 -0.026410      4.000000
  0.040884 -0.056766 -0.030092      4.000000
  0.040884 -0.037528 -0.033773      4.000000
  0.040884 -0.018290 -0.037455      4.000000
  0.061325  0.000948 -0.041137      4.000000
  0.061325  0.020185 -0.044819      4.000000
  0.061325  0.039423 -0.048500      4.000000
  0.061325  0.058661 -0.052182      4.000000
  0.061325  0.077898 -0.055864      4.000000
  0.061325  0.097136 -0.059546      4.000000
  0.061325  0.116374 -0.063227      4.000000
  0.061325  0.135612 -0.066909      4.000000
  0.061325  0.154849 -0.070591      4.000000
  0.061325 -0.152954 -0.011683      4.000000
  0.061325 -0.133716 -0.015365      4.000000
  0.061325 -0.114479 -0.019046      4.000000
  0.061325 -0.095241 -0.022728      4.000000
  0.061325 -0.076003 -0.026410      4.000000
  0.061325 -0.056766 -0.030092      4.000000
  0.061325 -0.037528 -0.033773      4.000000
  0.061325 -0.018290 -0.037455      4.000000
  0.081767  0.000948 -0.041137      4.000000
  0.081767  0.020185 -0.044819      4.000000
  0.081767  0.039423 -0.048500      4.000000
  0.081767  0.058661 -0.052182      4.000000
  0.081767  0.077898 -0.055864      4.000000
  0.081767  0.097136 -0.059546      4.000000
  0.081767  0.116374 -0.063227      4.000000
  0.081767  0.135612 -0.066909      4.000000
  0.081767  0.154849 -0.070591      4.000000
  0.081767 -0.152954 -0.011683      4.000000
  0.081767 -0.133716 -0.015365      4.000000
  0.081767 -0.114479 -0.019046      4.000000
  0.081767 -0.095241 -0.022728      4.000000
  0.081767 -0.076003 -0.026410      4.000000
  0.081767 -0.056766 -0.030092      4.000000
  0.081767 -0.037528 -0.033773      4.000000
  0.081767 -0.018290 -0.037455      4.000000
  0.102209  0.000948 -0.041137      4.000000
  0.102209  0.020185 -0.044819      4.000000
  0.102209  0.039423 -0.048500      4.000000
  0.102209  0.058661 -0.052182      4.000000
  0.102209  0.077898 -0.055864      4.000000
  0.102209  0.097136 -0.059546      4.000000
  0.102209  0.116374 -0.063227      4.000000
  0.102209  0.135612 -0.066909      4.000000
  0.102209  0.154849 -0.070591      4.000000
  0.102209 -0.152954 -0.011683      4.000000
  0.102209 -0.133716 -0.015365      4.000000
  0.102209 -0.114479 -0.019046      4.000000
  0.102209 -0.095241 -0.022728      4.000000
  0.102209 -0.076003 -0.026410      4.000000
  0.102209 -0.056766 -0.030092      4.000000
  0.102209 -0.037528 -0.033773      4.000000
  0.102209 -0.018290 -0.037455      4.000000
  0.122651  0.000948 -0.041137      4.000000
  0.122651  0.020185 -0.044819      4.000000
  0.122651  0.039423 -0.048500      4.000000
  0.122651  0.058661 -0.052182      4.000000
  0.122651  0.077898 -0.055864      4.000000
  0.122651  0.097136 -0.059546      4.000000
  0.122651  0.116374 -0.063227      4.000000
  0.122651  0.135612 -0.066909      4.000000
  0.122651  0.154849 -0.070591      4.000000
  0.122651 -0.152954 -0.011683      4.000000
  0.122651 -0.133716 -0.015365      4.000000
  0.122651 -0.114479 -0.019046      4.000000
  0.122651 -0.095241 -0.022728      4.000000
  0.122651 -0.076003 -0.026410      4.000000
  0.122651 -0.056766 -0.030092      4.000000
  0.122651 -0.037528 -0.033773      4.000000
  0.122651 -0.018290 -0.037455      4.000000
  0.143093  0.000948 -0.041137      4.000000
  0.143093  0.020185 -0.044819      4.000000
  0.143093  0.039423 -0.048500      4.000000
  0.143093  0.058661 -0.052182      4.000000
  0.143093  0.077898 -0.055864      4.000000
  0.143093  0.097136 -0.059546      4.000000
  0.143093  0.116374 -0.063227      4.000000
  0.143093  0.135612 -0.066909      4.000000
  0.143093  0.154849 -0.070591      4.000000
  0.143093 -0.152954 -0.011683      4.000000
  0.143093 -0.133716 -0.015365      4.000000
  0.143093 -0.114479 -0.019046      4.000000
  0.143093 -0.095241 -0.022728      4.000000
  0.143093 -0.076003 -0.026410      4.000000
  0.143093 -0.056766 -0.030092      4.000000
  0.143093 -0.037528 -0.033773      4.000000
  0.143093 -0.018290 -0.037455      4.000000
  0.163535  0.000948 -0.041137      2.000000
  0.163535  0.020185 -0.044819      2.000000
  0.163535  0.039423 -0.048500      2.000000
  0.163535  0.058661 -0.052182      2.000000
  0.163535  0.077898 -0.055864      2.000000
  0.163535  0.097136 -0.059546      2.000000
  0.163535  0.116374 -0.063227      2.000000
  0.163535  0.135612 -0.066909      2.000000
  0.163535  0.154849 -0.070591      2.000000
  0.163535 -0.152954 -0.011683      2.000000
  0.163535 -0.133716 -0.015365      2.000000
  0.163535 -0.114479 -0.019046      2.000000
  0.163535 -0.095241 -0.022728      2.000000
  0.163535 -0.076003 -0.026410      2.000000
  0.163535 -0.056766 -0.030092      2.000000
  0.163535 -0.037528 -0.033773      2.000000
  0.163535 -0.018290 -0.037455      2.000000
  0.000000  0.001421 -0.061705      2.000000
  0.000000  0.020659 -0.065387      2.000000
  0.000000  0.039897 -0.069069      2.000000
  0.000000  0.059135 -0.072751      2.000000
  0.000000  0.078372 -0.076432      2.000000
  0.000000  0.097610 -0.080114      2.000000
  0.000000  0.116848 -0.083796      2.000000
  0.000000  0.136085 -0.087478      2.000000
  0.000000  0.155323 -0.091159      2.000000
  0.000000 -0.152480 -0.032251      2.000000
  0.000000 -0.133243 -0.035933      2.000000
  0.000000 -0.114005 -0.039615      2.000000
  0.000000 -0.094767 -0.043297      2.000000
  0.000000 -0.075530 -0.046978      2.000000
  0.000000 -0.056292 -0.050660      2.000000
  0.000000 -0.037054 -0.054342      2.000000
  0.000000 -0.017816 -0.058024      2.000000
  0.020442  0.001421 -0.061705      4.000000
  0.020442  0.020659 -0.065387      4.000000
  0.020442  0.039897 -0.069069      4.000000
  0.020442  0.059135 -0.072751      4.000000
  0.020442  0.078372 -0.076432      4.000000
  0.020442  0.097610 -0.080114      4.000000
  0.020442  0.116848 -0.083796      4.000000
  0.020442  0.136085 -0.087478      4.000000
  0.020442  0.155323 -0.091159      4.000000
  0.020442 -0.152480 -0.032251      4.000000
  0.020442 -0.133243 -0.035933      4.000000
  0.020442 -0.114005 -0.039615      4.000000
  0.020442 -0.094767 -0.043297      4.000000
  0.020442 -0.075530 -0.046978      4.000000
  0.020442 -0.056292 -0.050660      4.000000
  0.020442 -0.037054 -0.054342      4.000000
  0.020442 -0.017816 -0.058024      4.000000
  0.040884  0.001421 -0.061705      4.000000
  0.040884  0.020659 -0.065387      4.000000
  0.040884  0.039897 -0.069069      4.000000
  0.040884  0.059135 -0.072751      4.000000
  0.040884  0.078372 -0.076432      4.000000
  0.040884  0.097610 -0.080114      4.000000
  0.040884  0.116848 -0.083796      4.000000
  0.040884  0.136085 -0.087478      4.000000
  0.040884  0.155323 -0.091159      4.000000
  0.040884 -0.152480 -0.032251      4.000000
  0.040884 -0.133243 -0.035933      4.000000
  0.040884 -0.114005 -0.039615      4.000000
  0.040884 -0.094767 -0.043297      4.000000
  0.040884 -0.075530 -0.046978      4.000000
  0.040884 -0.056292 -0.050660      4.000000
  0.040884 -0.037054 -0.054342      4.000000
  0.040884 -0.017816 -0.058024      4.000000
  0.061325  0.001421 -0.061705      4.000000
  0.061325  0.020659 -0.065387      4.000000
  0.061325  0.039897 -0.069069      4.000000
  0.061325  0.059135 -0.072751      4.000000
  0.061325  0.078372 -0.076432      4.000000
  0.061325  0.097610 -0.080114      4.000000
  0.061325  0.116848 -0.083796      4.000000
  0.061325  0.136085 -0.087478      4.000000
  0.061325  0.155323 -0.091159      4.000000
  0.061325 -0.152480 -0.032251      4.000000
  0.061325 -0.133243 -0.035933      4.000000
  0.061325 -0.114005 -0.039615      4.000000
  0.061325 -0.094767 -0.043297      4.000000
  0.061325 -0.075530 -0.046978      4.000000
  0.061325 -0.056292 -0.050660      4.000000
  0.061325 -0.037054 -0.054342      4.000000
  0.061325 -0.017816 -0.058024      4.000000
  0.081767  0.001421 -0.061705      4.000000
  0.081767  0.020659 -0.065387      4.000000
  0.081767  0.039897 -0.069069      4.000000
  0.081767  0.059135 -0.072751      4.000000
  0.081767  0.078372 -0.076432      4.000000
  0.081767  0.097610 -0.080114      4.000000
  0.081767  0.116848 -0.083796      4.000000
  0.081767  0.136085 -0.087478      4.000000
  0.081767  0.155323 -0.091159      4.000000
  0.081767 -0.152480 -0.032251      4.000000
  0.081767 -0.133243 -0.035933      4.000000
  0.081767 -0.114005 -0.039615      4.000000
  0.081767 -0.094767 -0.043297      4.000000
  0.081767 -0.075530 -0.046978      4.000000
  0.081767 -0.056292 -0.050660      4.000000
  0.081767 -0.037054 -0.054342      4.000000
  0.081767 -0.017816 -0.058024      4.000000
  0.102209  0.001421 -0.061705      4.000000
  0.102209  0.020659 -0.065387      4.000000
  0.102209  0.039897 -0.069069      4.000000
  0.102209  0.059135 -0.072751      4.000000
  0.102209  0.078372 -0.076432      4.000000
  0.102209  0.097610 -0.080114      4.000000
  0.102209  0.116848 -0.083796      4.000000
  0.102209  0.136085 -0.087478      4.000000
  0.102209  0.155323 -0.091159      4.000000
  0.102209 -0.152480 -0.032251      4.000000
  0.102209 -0.133243 -0.035933      4.000000
  0.102209 -0.114005 -0.039615      4.000000
  0.102209 -0.094767 -0.043297      4.000000
  0.102209 -0.075530 -0.046978      4.000000
  0.102209 -0.056292 -0.050660      4.000000
  0.102209 -0.037054 -0.054342      4.000000
  0.102209 -0.017816 -0.058024      4.000000
  0.122651  0.001421 -0.061705      4.000000
  0.122651  0.020659 -0.065387      4.000000
  0.122651  0.039897 -0.069069      4.000000
  0.122651  0.059135 -0.072751      4.000000
  0.122651  0.078372 -0.076432      4.000000
  0.122651  0.097610 -0.080114      4.000000
  0.122651  0.116848 -0.083796      4.000000
  0.122651  0.136085 -0.087478      4.000000
  0.122651  0.155323 -0.091159      4.000000
  0.122651 -0.152480 -0.032251      4.000000
  0.122651 -0.133243 -0.035933      4.000000
  0.122651 -0.114005 -0.039615      4.000000
  0.122651 -0.094767 -0.043297      4.000000
  0.122651 -0.075530 -0.046978      4.000000
  0.122651 -0.056292 -0.050660      4.000000
  0.122651 -0.037054 -0.054342      4.000000
  0.122651 -0.017816 -0.058024      4.000000
  0.143093  0.001421 -0.061705      4.000000
  0.143093  0.020659 -0.065387      4.000000
  0.143093  0.039897 -0.069069      4.000000
  0.143093  0.059135 -0.072751      4.000000
  0.143093  0.078372 -0.076432      4.000000
  0.143093  0.097610 -0.080114      4.000000
  0.143093  0.116848 -0.083796      4.000000
  0.143093  0.136085 -0.087478      4.000000
  0.143093  0.155323 -0.091159      4.000000
  0.143093 -0.152480 -0.032251      4.000000
  0.143093 -0.133243 -0.035933      4.000000
  0.143093 -0.114005 -0.039615      4.000000
  0.143093 -0.094767 -0.043297      4.000000
  0.143093 -0.075530 -0.046978      4.000000
  0.143093 -0.056292 -0.050660      4.000000
  0.143093 -0.037054 -0.054342      4.000000
  0.143093 -0.017816 -0.058024      4.000000
  0.163535  0.001421 -0.061705      2.000000
  0.163535  0.020659 -0.065387      2.000000
  0.163535  0.039897 -0.069069      2.000000
  0.163535  0.059135 -0.072751      2.000000
  0.163535  0.078372 -0.076432      2.000000
  0.163535  0.097610 -0.080114      2.000000
  0.163535  0.116848 -0.083796      2.000000
  0.163535  0.136085 -0.087478      2.000000
  0.163535  0.155323 -0.091159      2.000000
  0.163535 -0.152480 -0.032251      2.000000
  0.163535 -0.133243 -0.035933      2.000000
  0.163535 -0.114005 -0.039615      2.000000
  0.163535 -0.094767 -0.043297      2.000000
  0.163535 -0.075530 -0.046978      2.000000
  0.163535 -0.056292 -0.050660      2.000000
  0.163535 -0.037054 -0.054342      2.000000
  0.163535 -0.017816 -0.058024      2.000000
 


--------------------------------------------------------------------------------------------------------




 Dimension of arrays:
   k-points           NKPTS =    540   k-points in BZ     NKDIM =    540   number of bands    NBANDS=     18
   number of dos      NEDOS =    301   number of ions     NIONS =      8
   non local maximal  LDIM  =      6   non local SUM 2l+1 LMDIM =     18
   total plane-waves  NPLWV =  31104
   max r-space proj   IRMAX =      1   max aug-charges    IRDMAX= 217955
   dimension x,y,z NGX =    24 NGY =   24 NGZ =   54
   dimension x,y,z NGXF=    48 NGYF=   48 NGZF=  108
   support grid    NGXF=    96 NGYF=   96 NGZF=  216
   ions per type =               6   2
 NGX,Y,Z   is equivalent  to a cutoff of  12.99, 13.05, 12.64 a.u.
 NGXF,Y,Z  is equivalent  to a cutoff of  25.98, 26.10, 25.28 a.u.


 I would recommend the setting:
   dimension x,y,z NGX =    23 NGY =   23 NGZ =   53
 SYSTEM =  matgen-scf                              
 POSCAR =  H6 W2                                   

 Startparameter for this run:
   NWRITE =      2    write-flag & timer
   PREC   = accura    normal or accurate (medium, high low for compatibility)
   ISTART =      0    job   : 0-new  1-cont  2-samecut
   ICHARG =      2    charge: 1-file 2-atom 10-const
   ISPIN  =      2    spin polarized calculation?
   LNONCOLLINEAR =      F non collinear calculations
   LSORBIT =      F    spin-orbit coupling
   INIWAV =      1    electr: 0-lowe 1-rand  2-diag
   LASPH  =      F    aspherical Exc in radial PAW
   METAGGA=      F    non-selfconsistent MetaGGA calc.

 Electronic Relaxation 1
   ENCUT  =  520.0 eV  38.22 Ry    6.18 a.u.   5.71  5.68 13.21*2*pi/ulx,y,z
   ENINI  =  520.0     initial cutoff
   ENAUG  =  400.0 eV  augmentation charge cutoff
   NELM   =    140;   NELMIN=  6; NELMDL= -5     # of ELM steps 
   EDIFF  = 0.1E-03   stopping-criterion for ELM
   LREAL  =      F    real-space projection
   NLSPLINE    = F    spline interpolate recip. space projectors
   LCOMPAT=      F    compatible to vasp.4.4
   GGA_COMPAT  = T    GGA compatible to vasp.4.4-vasp.4.6
   LMAXPAW     = -100 max onsite density
   LMAXMIX     =    4 max onsite mixed and CHGCAR
   VOSKOWN=      0    Vosko Wilk Nusair interpolation
   ROPT   =    0.00000   0.00000
 Ionic relaxation
   EDIFFG = -.1E-01   stopping-criterion for IOM
   NSW    =      0    number of steps for IOM
   NBLOCK =      1;   KBLOCK =      1    inner block; outer block 
   IBRION =     -1    ionic relax: 0-MD 1-quasi-New 2-CG
   NFREE  =      0    steps in history (QN), initial steepest desc. (CG)
   ISIF   =      2    stress and relaxation
   IWAVPR =     10    prediction:  0-non 1-charg 2-wave 3-comb
   ISYM   =      2    0-nonsym 1-usesym 2-fastsym
   LCORR  =      T    Harris-Foulkes like correction to forces

   POTIM  = 0.0500    time-step for ionic-motion
   TEIN   =    0.0    initial temperature
   TEBEG  =    0.0;   TEEND  =   0.0 temperature during run
   SMASS  =  -3.00    Nose mass-parameter (am)
   estimated Nose-frequenzy (Omega)   =  0.10E-29 period in steps =****** mass=  -0.216E-27a.u.
   SCALEE = 1.0000    scale energy and forces
   NPACO  =    256;   APACO  = 16.0  distance and # of slots for P.C.
   PSTRESS=    0.0 pullay stress

  Mass of Ions in am
   POMASS =   1.00183.85
  Ionic Valenz
   ZVAL   =   1.00  6.00
  Atomic Wigner-Seitz radii
   RWIGS  =  -1.00 -1.00
  virtual crystal weights 
   VCA    =   1.00  1.00
   NELECT =      18.0000    total number of electrons
   NUPDOWN=      -1.0000    fix difference up-down

 DOS related values:
   EMIN   =  10.00;   EMAX   =-10.00  energy-range for DOS
   EFERMI =   0.00
   ISMEAR =     0;   SIGMA  =   0.05  broadening in eV -4-tet -1-fermi 0-gaus

 Electronic relaxation 2 (details)
   IALGO  =     38    algorithm
   LDIAG  =      T    sub-space diagonalisation (order eigenvalues)
   LSUBROT=      F    optimize rotation matrix (better conditioning)
   TURBO    =      0    0=normal 1=particle mesh
   IRESTART =      0    0=no restart 2=restart with 2 vectors
   NREBOOT  =      0    no. of reboots
   NMIN     =      0    reboot dimension
   EREF     =   0.00    reference energy to select bands
   IMIX   =      4    mixing-type and parameters
     AMIX     =   0.10;   BMIX     =  1.20
     AMIX_MAG =   0.40;   BMIX_MAG =  1.20
     AMIN     =   0.10
     WC   =   100.;   INIMIX=   1;  MIXPRE=   1;  MAXMIX= -45

 Intra band minimization:
   WEIMIN = 0.0000     energy-eigenvalue tresh-hold
   EBREAK =  0.14E-05  absolut break condition
   DEPER  =   0.30     relativ break condition  

   TIME   =   0.40     timestep for ELM

  volume/ion in A,a.u.               =       8.15        55.02
  Fermi-wavevector in a.u.,A,eV,Ry     =   1.065876  2.014213 15.457454  1.136091
  Thomas-Fermi vector in A             =   2.201442
 
 Write flags
   LWAVE  =      F    write WAVECAR
   LCHARG =      T    write CHGCAR
   LVTOT  =      F    write LOCPOT, total local potential
   LVHAR  =      F    write LOCPOT, Hartree potential only
   LELF   =      F    write electronic localiz. function (ELF)
   LORBIT =     11    0 simple, 1 ext, 2 COOP (PROOUT)


 Dipole corrections
   LMONO  =      F    monopole corrections only (constant potential shift)
   LDIPOL =      F    correct potential (dipole corrections)
   IDIPOL =      0    1-x, 2-y, 3-z, 4-all directions 
   EPSILON=  1.0000000 bulk dielectric constant

 LDA+U is selected, type is set to LDAUTYPE =  2
   angular momentum for each species LDAUL =    -1    2
   U (eV)           for each species LDAUU =   0.0  2.2
   J (eV)           for each species LDAUJ =   0.0  0.0
 Exchange correlation treatment:
   GGA     =    --    GGA type
   LEXCH   =     8    internal setting for exchange type
   VOSKOWN=      0    Vosko Wilk Nusair interpolation
   LHFCALC =     F    Hartree Fock is set to
   LHFONE  =     F    Hartree Fock one center treatment
   AEXX    =    0.0000 exact exchange contribution

 Linear response parameters
   LEPSILON=     F    determine dielectric tensor
   LRPA    =     F    only Hartree local field effects (RPA)
   LNABLA  =     F    use nabla operator in PAW spheres
   LVEL    =     F    velocity operator in full k-point grid
   LINTERFAST=   F  fast interpolation
   KINTER  =     0    interpolate to denser k-point grid
   CSHIFT  =0.1000    complex shift for real part using Kramers Kronig
   OMEGAMAX=  -1.0    maximum frequency
   DEG_THRESHOLD= 0.2000000E-02 threshold for treating states as degnerate
   RTIME   =    0.100 relaxation time in fs

 Orbital magnetization related:
   ORBITALMAG=     F  switch on orbital magnetization
   LCHIMAG   =     F  perturbation theory with respect to B field
   DQ        =  0.001000  dq finite difference perturbation B field



--------------------------------------------------------------------------------------------------------


 Static calculation
 charge density and potential will be updated during run
 spin polarized calculation
 Variant of blocked Davidson
 Davidson routine will perform the subspace rotation
 perform sub-space diagonalisation
    after iterative eigenvector-optimisation
 modified Broyden-mixing scheme, WC =      100.0
 initial mixing is a Kerker type mixing with AMIX =  0.1000 and BMIX =      1.2000
 Hartree-type preconditioning will be used
 using additional bands            9
 reciprocal scheme for non local part
 use partial core corrections
 calculate Harris-corrections to forces 
   (improved forces if not selfconsistent)
 use gradient corrections 
 use of overlap-Matrix (Vanderbilt PP)
 Gauss-broadening in eV      SIGMA  =   0.05


--------------------------------------------------------------------------------------------------------


  energy-cutoff  :      520.00
  volume of cell :       65.22
      direct lattice vectors                 reciprocal lattice vectors
     0.000000000  3.071257525  0.070744420     0.000000000  0.327041241 -0.062589719
     3.057456611  0.000000000  0.000000000     0.327069237  0.000000000  0.000000000
     0.000000000 -1.335119409 -6.976211344     0.000000000  0.003316462 -0.143978991

  length of vectors
     3.072072193  3.057456611  7.102821169     0.332976646  0.327069237  0.144017183


 
 k-points in units of 2pi/SCALE and weight: K-Mesh                                  
   0.00000000  0.00000000 -0.00000000       0.001
   0.00000000  0.01923772 -0.00368175       0.001
   0.00000000  0.03847544 -0.00736350       0.001
   0.00000000  0.05771316 -0.01104524       0.001
   0.00000000  0.07695088 -0.01472699       0.001
   0.00000000  0.09618860 -0.01840874       0.001
   0.00000000  0.11542632 -0.02209049       0.001
   0.00000000  0.13466404 -0.02577224       0.001
   0.00000000  0.15390176 -0.02945399       0.001
   0.02044183  0.00000000 -0.00000000       0.001
   0.02044183  0.01923772 -0.00368175       0.002
   0.02044183  0.03847544 -0.00736350       0.002
   0.02044183  0.05771316 -0.01104524       0.002
   0.02044183  0.07695088 -0.01472699       0.002
   0.02044183  0.09618860 -0.01840874       0.002
   0.02044183  0.11542632 -0.02209049       0.002
   0.02044183  0.13466404 -0.02577224       0.002
   0.02044183  0.15390176 -0.02945399       0.002
   0.04088365  0.00000000 -0.00000000       0.001
   0.04088365  0.01923772 -0.00368175       0.002
   0.04088365  0.03847544 -0.00736350       0.002
   0.04088365  0.05771316 -0.01104524       0.002
   0.04088365  0.07695088 -0.01472699       0.002
   0.04088365  0.09618860 -0.01840874       0.002
   0.04088365  0.11542632 -0.02209049       0.002
   0.04088365  0.13466404 -0.02577224       0.002
   0.04088365  0.15390176 -0.02945399       0.002
   0.06132548  0.00000000 -0.00000000       0.001
   0.06132548  0.01923772 -0.00368175       0.002
   0.06132548  0.03847544 -0.00736350       0.002
   0.06132548  0.05771316 -0.01104524       0.002
   0.06132548  0.07695088 -0.01472699       0.002
   0.06132548  0.09618860 -0.01840874       0.002
   0.06132548  0.11542632 -0.02209049       0.002
   0.06132548  0.13466404 -0.02577224       0.002
   0.06132548  0.15390176 -0.02945399       0.002
   0.08176731  0.00000000 -0.00000000       0.001
   0.08176731  0.01923772 -0.00368175       0.002
   0.08176731  0.03847544 -0.00736350       0.002
   0.08176731  0.05771316 -0.01104524       0.002
   0.08176731  0.07695088 -0.01472699       0.002
   0.08176731  0.09618860 -0.01840874       0.002
   0.08176731  0.11542632 -0.02209049       0.002
   0.08176731  0.13466404 -0.02577224       0.002
   0.08176731  0.15390176 -0.02945399       0.002
   0.10220914  0.00000000 -0.00000000       0.001
   0.10220914  0.01923772 -0.00368175       0.002
   0.10220914  0.03847544 -0.00736350       0.002
   0.10220914  0.05771316 -0.01104524       0.002
   0.10220914  0.07695088 -0.01472699       0.002
   0.10220914  0.09618860 -0.01840874       0.002
   0.10220914  0.11542632 -0.02209049       0.002
   0.10220914  0.13466404 -0.02577224       0.002
   0.10220914  0.15390176 -0.02945399       0.002
   0.12265096  0.00000000 -0.00000000       0.001
   0.12265096  0.01923772 -0.00368175       0.002
   0.12265096  0.03847544 -0.00736350       0.002
   0.12265096  0.05771316 -0.01104524       0.002
   0.12265096  0.07695088 -0.01472699       0.002
   0.12265096  0.09618860 -0.01840874       0.002
   0.12265096  0.11542632 -0.02209049       0.002
   0.12265096  0.13466404 -0.02577224       0.002
   0.12265096  0.15390176 -0.02945399       0.002
   0.14309279  0.00000000 -0.00000000       0.001
   0.14309279  0.01923772 -0.00368175       0.002
   0.14309279  0.03847544 -0.00736350       0.002
   0.14309279  0.05771316 -0.01104524       0.002
   0.14309279  0.07695088 -0.01472699       0.002
   0.14309279  0.09618860 -0.01840874       0.002
   0.14309279  0.11542632 -0.02209049       0.002
   0.14309279  0.13466404 -0.02577224       0.002
   0.14309279  0.15390176 -0.02945399       0.002
   0.16353462  0.00000000 -0.00000000       0.001
   0.16353462  0.01923772 -0.00368175       0.001
   0.16353462  0.03847544 -0.00736350       0.001
   0.16353462  0.05771316 -0.01104524       0.001
   0.16353462  0.07695088 -0.01472699       0.001
   0.16353462  0.09618860 -0.01840874       0.001
   0.16353462  0.11542632 -0.02209049       0.001
   0.16353462  0.13466404 -0.02577224       0.001
   0.16353462  0.15390176 -0.02945399       0.001
   0.00000000  0.00047378 -0.02056843       0.001
   0.00000000  0.01971150 -0.02425018       0.001
   0.00000000  0.03894922 -0.02793192       0.001
   0.00000000  0.05818694 -0.03161367       0.001
   0.00000000  0.07742466 -0.03529542       0.001
   0.00000000  0.09666238 -0.03897717       0.001
   0.00000000  0.11590010 -0.04265892       0.001
   0.00000000  0.13513782 -0.04634066       0.001
   0.00000000  0.15437554 -0.05002241       0.001
   0.00000000 -0.15342798  0.00888556       0.001
   0.00000000 -0.13419026  0.00520381       0.001
   0.00000000 -0.11495254  0.00152206       0.001
   0.00000000 -0.09571482 -0.00215969       0.001
   0.00000000 -0.07647710 -0.00584143       0.001
   0.00000000 -0.05723938 -0.00952318       0.001
   0.00000000 -0.03800166 -0.01320493       0.001
   0.00000000 -0.01876394 -0.01688668       0.001
   0.02044183  0.00047378 -0.02056843       0.002
   0.02044183  0.01971150 -0.02425018       0.002
   0.02044183  0.03894922 -0.02793192       0.002
   0.02044183  0.05818694 -0.03161367       0.002
   0.02044183  0.07742466 -0.03529542       0.002
   0.02044183  0.09666238 -0.03897717       0.002
   0.02044183  0.11590010 -0.04265892       0.002
   0.02044183  0.13513782 -0.04634066       0.002
   0.02044183  0.15437554 -0.05002241       0.002
   0.02044183 -0.15342798  0.00888556       0.002
   0.02044183 -0.13419026  0.00520381       0.002
   0.02044183 -0.11495254  0.00152206       0.002
   0.02044183 -0.09571482 -0.00215969       0.002
   0.02044183 -0.07647710 -0.00584143       0.002
   0.02044183 -0.05723938 -0.00952318       0.002
   0.02044183 -0.03800166 -0.01320493       0.002
   0.02044183 -0.01876394 -0.01688668       0.002
   0.04088365  0.00047378 -0.02056843       0.002
   0.04088365  0.01971150 -0.02425018       0.002
   0.04088365  0.03894922 -0.02793192       0.002
   0.04088365  0.05818694 -0.03161367       0.002
   0.04088365  0.07742466 -0.03529542       0.002
   0.04088365  0.09666238 -0.03897717       0.002
   0.04088365  0.11590010 -0.04265892       0.002
   0.04088365  0.13513782 -0.04634066       0.002
   0.04088365  0.15437554 -0.05002241       0.002
   0.04088365 -0.15342798  0.00888556       0.002
   0.04088365 -0.13419026  0.00520381       0.002
   0.04088365 -0.11495254  0.00152206       0.002
   0.04088365 -0.09571482 -0.00215969       0.002
   0.04088365 -0.07647710 -0.00584143       0.002
   0.04088365 -0.05723938 -0.00952318       0.002
   0.04088365 -0.03800166 -0.01320493       0.002
   0.04088365 -0.01876394 -0.01688668       0.002
   0.06132548  0.00047378 -0.02056843       0.002
   0.06132548  0.01971150 -0.02425018       0.002
   0.06132548  0.03894922 -0.02793192       0.002
   0.06132548  0.05818694 -0.03161367       0.002
   0.06132548  0.07742466 -0.03529542       0.002
   0.06132548  0.09666238 -0.03897717       0.002
   0.06132548  0.11590010 -0.04265892       0.002
   0.06132548  0.13513782 -0.04634066       0.002
   0.06132548  0.15437554 -0.05002241       0.002
   0.06132548 -0.15342798  0.00888556       0.002
   0.06132548 -0.13419026  0.00520381       0.002
   0.06132548 -0.11495254  0.00152206       0.002
   0.06132548 -0.09571482 -0.00215969       0.002
   0.06132548 -0.07647710 -0.00584143       0.002
   0.06132548 -0.05723938 -0.00952318       0.002
   0.06132548 -0.03800166 -0.01320493       0.002
   0.06132548 -0.01876394 -0.01688668       0.002
   0.08176731  0.00047378 -0.02056843       0.002
   0.08176731  0.01971150 -0.02425018       0.002
   0.08176731  0.03894922 -0.02793192       0.002
   0.08176731  0.05818694 -0.03161367       0.002
   0.08176731  0.07742466 -0.03529542       0.002
   0.08176731  0.09666238 -0.03897717       0.002
   0.08176731  0.11590010 -0.04265892       0.002
   0.08176731  0.13513782 -0.04634066       0.002
   0.08176731  0.15437554 -0.05002241       0.002
   0.08176731 -0.15342798  0.00888556       0.002
   0.08176731 -0.13419026  0.00520381       0.002
   0.08176731 -0.11495254  0.00152206       0.002
   0.08176731 -0.09571482 -0.00215969       0.002
   0.08176731 -0.07647710 -0.00584143       0.002
   0.08176731 -0.05723938 -0.00952318       0.002
   0.08176731 -0.03800166 -0.01320493       0.002
   0.08176731 -0.01876394 -0.01688668       0.002
   0.10220914  0.00047378 -0.02056843       0.002
   0.10220914  0.01971150 -0.02425018       0.002
   0.10220914  0.03894922 -0.02793192       0.002
   0.10220914  0.05818694 -0.03161367       0.002
   0.10220914  0.07742466 -0.03529542       0.002
   0.10220914  0.09666238 -0.03897717       0.002
   0.10220914  0.11590010 -0.04265892       0.002
   0.10220914  0.13513782 -0.04634066       0.002
   0.10220914  0.15437554 -0.05002241       0.002
   0.10220914 -0.15342798  0.00888556       0.002
   0.10220914 -0.13419026  0.00520381       0.002
   0.10220914 -0.11495254  0.00152206       0.002
   0.10220914 -0.09571482 -0.00215969       0.002
   0.10220914 -0.07647710 -0.00584143       0.002
   0.10220914 -0.05723938 -0.00952318       0.002
   0.10220914 -0.03800166 -0.01320493       0.002
   0.10220914 -0.01876394 -0.01688668       0.002
   0.12265096  0.00047378 -0.02056843       0.002
   0.12265096  0.01971150 -0.02425018       0.002
   0.12265096  0.03894922 -0.02793192       0.002
   0.12265096  0.05818694 -0.03161367       0.002
   0.12265096  0.07742466 -0.03529542       0.002
   0.12265096  0.09666238 -0.03897717       0.002
   0.12265096  0.11590010 -0.04265892       0.002
   0.12265096  0.13513782 -0.04634066       0.002
   0.12265096  0.15437554 -0.05002241       0.002
   0.12265096 -0.15342798  0.00888556       0.002
   0.12265096 -0.13419026  0.00520381       0.002
   0.12265096 -0.11495254  0.00152206       0.002
   0.12265096 -0.09571482 -0.00215969       0.002
   0.12265096 -0.07647710 -0.00584143       0.002
   0.12265096 -0.05723938 -0.00952318       0.002
   0.12265096 -0.03800166 -0.01320493       0.002
   0.12265096 -0.01876394 -0.01688668       0.002
   0.14309279  0.00047378 -0.02056843       0.002
   0.14309279  0.01971150 -0.02425018       0.002
   0.14309279  0.03894922 -0.02793192       0.002
   0.14309279  0.05818694 -0.03161367       0.002
[...]
      5      -0.9482      1.00000
      6      -0.9482      1.00000
      7       0.6436      1.00000
      8       0.6436      1.00000
      9       2.7968      1.00000
     10       2.7968      1.00000
     11       6.4915      0.00000
     12       6.4915      0.00000
     13       7.0688      0.00000
     14       7.0688      0.00000
     15       8.6280      0.00000
     16       8.6280      0.00000
     17      11.5776      0.00000
     18      11.5776      0.00000

 k-point   528 :       0.2353    0.5000    0.4286
  band No.  band energies     occupation 
      1      -4.6074      1.00000
      2      -4.6074      1.00000
      3      -2.4909      1.00000
      4      -2.4909      1.00000
      5      -1.1307      1.00000
      6      -1.1307      1.00000
      7       0.5136      1.00000
      8       0.5136      1.00000
      9       3.2612      0.18955
     10       3.2612      0.18955
     11       6.8799      0.00000
     12       6.8799      0.00000
     13       7.2653      0.00000
     14       7.2653      0.00000
     15       8.9733      0.00000
     16       8.9733      0.00000
     17      11.0627      0.00000
     18      11.0627      0.00000

 k-point   529 :       0.2941    0.5000    0.4286
  band No.  band energies     occupation 
      1      -4.7666      1.00000
      2      -4.7666      1.00000
      3      -2.0939      1.00000
      4      -2.0939      1.00000
      5      -1.3259      1.00000
      6      -1.3259      1.00000
      7       0.5802      1.00000
      8       0.5802      1.00000
      9       3.7326      0.00000
     10       3.7326      0.00000
     11       6.8937      0.00000
     12       6.8937      0.00000
     13       7.7895      0.00000
     14       7.7895      0.00000
     15       9.3267      0.00000
     16       9.3267      0.00000
     17      10.5778      0.00000
     18      10.5778      0.00000

 k-point   530 :       0.3529    0.5000    0.4286
  band No.  band energies     occupation 
      1      -4.9138      1.00000
      2      -4.9138      1.00000
      3      -1.8348      1.00000
      4      -1.8348      1.00000
      5      -1.4372      1.00000
      6      -1.4372      1.00000
      7       0.8218      1.00000
      8       0.8218      1.00000
      9       4.1452      0.00000
     10       4.1452      0.00000
     11       6.8366      0.00000
     12       6.8366      0.00000
     13       8.2649      0.00000
     14       8.2649      0.00000
     15       9.5752      0.00000
     16       9.5752      0.00000
     17      10.3625      0.00000
     18      10.3625      0.00000

 k-point   531 :       0.4118    0.5000    0.4286
  band No.  band energies     occupation 
      1      -5.0253      1.00000
      2      -5.0253      1.00000
      3      -1.8470      1.00000
      4      -1.8470      1.00000
      5      -1.3379      1.00000
      6      -1.3379      1.00000
      7       1.1365      1.00000
      8       1.1365      1.00000
      9       4.4079      0.00000
     10       4.4079      0.00000
     11       6.8082      0.00000
     12       6.8082      0.00000
     13       8.5579      0.00000
     14       8.5579      0.00000
     15       9.6998      0.00000
     16       9.6998      0.00000
     17      10.4316      0.00000
     18      10.4316      0.00000

 k-point   532 :       0.4706    0.5000    0.4286
  band No.  band energies     occupation 
      1      -5.0853      1.00000
      2      -5.0853      1.00000
      3      -1.9116      1.00000
      4      -1.9116      1.00000
      5      -1.2318      1.00000
      6      -1.2318      1.00000
      7       1.3609      1.00000
      8       1.3609      1.00000
      9       4.4993      0.00000
     10       4.4993      0.00000
     11       6.8288      0.00000
     12       6.8288      0.00000
     13       8.6734      0.00000
     14       8.6734      0.00000
     15       9.7884      0.00000
     16       9.7884      0.00000
     17      10.4972      0.00000
     18      10.4972      0.00000

 k-point   533 :      -0.4706    0.5000    0.4286
  band No.  band energies     occupation 
      1      -5.0863      1.00000
      2      -5.0863      1.00000
      3      -1.9185      1.00000
      4      -1.9185      1.00000
      5      -1.2161      1.00000
      6      -1.2161      1.00000
      7       1.3503      1.00000
      8       1.3503      1.00000
      9       4.5091      0.00000
     10       4.5091      0.00000
     11       6.8284      0.00000
     12       6.8284      0.00000
     13       8.6722      0.00000
     14       8.6722      0.00000
     15       9.7120      0.00000
     16       9.7120      0.00000
     17      10.4816      0.00000
     18      10.4816      0.00000

 k-point   534 :      -0.4118    0.5000    0.4286
  band No.  band energies     occupation 
      1      -5.0283      1.00000
      2      -5.0283      1.00000
      3      -1.8647      1.00000
      4      -1.8647      1.00000
      5      -1.2970      1.00000
      6      -1.2970      1.00000
      7       1.1106      1.00000
      8       1.1106      1.00000
      9       4.4338      0.00000
     10       4.4338      0.00000
     11       6.8036      0.00000
     12       6.8036      0.00000
     13       8.5580      0.00000
     14       8.5580      0.00000
     15       9.5477      0.00000
     16       9.5477      0.00000
     17      10.3041      0.00000
     18      10.3041      0.00000

 k-point   535 :      -0.3529    0.5000    0.4286
  band No.  band energies     occupation 
      1      -4.9193      1.00000
      2      -4.9193      1.00000
      3      -1.8324      1.00000
      4      -1.8324      1.00000
      5      -1.4131      1.00000
      6      -1.4131      1.00000
      7       0.7960      1.00000
      8       0.7960      1.00000
      9       4.1770      0.00000
     10       4.1770      0.00000
     11       6.8267      0.00000
     12       6.8267      0.00000
     13       8.2452      0.00000
     14       8.2452      0.00000
     15       9.5100      0.00000
     16       9.5100      0.00000
     17      10.0846      0.00000
     18      10.0846      0.00000

 k-point   536 :      -0.2941    0.5000    0.4286
  band No.  band energies     occupation 
      1      -4.7750      1.00000
      2      -4.7750      1.00000
      3      -2.0521      1.00000
      4      -2.0521      1.00000
      5      -1.3516      1.00000
      6      -1.3516      1.00000
      7       0.5710      1.00000
      8       0.5710      1.00000
      9       3.7602      0.00000
     10       3.7602      0.00000
     11       6.8827      0.00000
     12       6.8827      0.00000
     13       7.7474      0.00000
     14       7.7474      0.00000
     15       9.3372      0.00000
     16       9.3372      0.00000
     17      10.2437      0.00000
     18      10.2437      0.00000

 k-point   537 :      -0.2353    0.5000    0.4286
  band No.  band energies     occupation 
      1      -4.6184      1.00000
      2      -4.6184      1.00000
      3      -2.4483      1.00000
      4      -2.4483      1.00000
      5      -1.1709      1.00000
      6      -1.1709      1.00000
      7       0.5247      1.00000
      8       0.5247      1.00000
      9       3.2806      0.07634
     10       3.2806      0.07634
     11       6.8870      0.00000
     12       6.8870      0.00000
     13       7.2057      0.00000
     14       7.2057      0.00000
     15       8.9684      0.00000
     16       8.9684      0.00000
     17      10.7694      0.00000
     18      10.7694      0.00000

 k-point   538 :      -0.1765    0.5000    0.4286
  band No.  band energies     occupation 
      1      -4.4773      1.00000
      2      -4.4773      1.00000
      3      -2.8554      1.00000
      4      -2.8554      1.00000
      5      -0.9832      1.00000
      6      -0.9832      1.00000
      7       0.6626      1.00000
      8       0.6626      1.00000
      9       2.8081      1.00000
     10       2.8081      1.00000
     11       6.5060      0.00000
     12       6.5060      0.00000
     13       7.0159      0.00000
     14       7.0159      0.00000
     15       8.6032      0.00000
     16       8.6032      0.00000
     17      11.3469      0.00000
     18      11.3469      0.00000

 k-point   539 :      -0.1176    0.5000    0.4286
  band No.  band energies     occupation 
      1      -4.3773      1.00000
      2      -4.3773      1.00000
      3      -3.1815      1.00000
      4      -3.1815      1.00000
      5      -0.8179      1.00000
      6      -0.8179      1.00000
      7       0.9278      1.00000
      8       0.9278      1.00000
      9       2.3816      1.00000
     10       2.3816      1.00000
     11       5.9855      0.00000
     12       5.9855      0.00000
     13       7.0091      0.00000
     14       7.0091      0.00000
     15       8.3128      0.00000
     16       8.3128      0.00000
     17      11.7549      0.00000
     18      11.7549      0.00000

 k-point   540 :      -0.0588    0.5000    0.4286
  band No.  band energies     occupation 
      1      -4.3285      1.00000
      2      -4.3285      1.00000
      3      -3.3798      1.00000
      4      -3.3798      1.00000
      5      -0.6940      1.00000
      6      -0.6940      1.00000
      7       1.2271      1.00000
      8       1.2271      1.00000
      9       2.0307      1.00000
     10       2.0307      1.00000
     11       5.5947      0.00000
     12       5.5947      0.00000
     13       7.0132      0.00000
     14       7.0132      0.00000
     15       8.1319      0.00000
     16       8.1319      0.00000
     17      11.8933      0.00000
     18      11.8933      0.00000


--------------------------------------------------------------------------------------------------------


 soft charge-density along one line, spin component           1
         0         1         2         3         4         5         6         7         8         9
 total charge-density along one line
 
 soft charge-density along one line, spin component           2
         0         1         2         3         4         5         6         7         8         9
 total charge-density along one line
 
 pseudopotential strength for first ion, spin component:           1
 -2.238  -3.837   0.000  -0.001  -0.000
 -3.837  -6.492   0.000  -0.002  -0.000
  0.000   0.000  -0.369  -0.000  -0.000
 -0.001  -0.002  -0.000  -0.368  -0.000
 -0.000  -0.000  -0.000  -0.000  -0.368
 pseudopotential strength for first ion, spin component:           2
 -2.238  -3.837   0.000  -0.001  -0.000
 -3.837  -6.491   0.000  -0.002  -0.000
  0.000   0.000  -0.369  -0.000  -0.000
 -0.001  -0.002  -0.000  -0.368  -0.000
 -0.000  -0.000  -0.000  -0.000  -0.368
 total augmentation occupancy for first ion, spin component:           1
  2.452  -0.343  -0.015   0.114   0.000
 -0.343   0.054   0.002  -0.018  -0.000
 -0.015   0.002   0.005  -0.001  -0.000
  0.114  -0.018  -0.001   0.010   0.000
  0.000   0.000   0.000   0.000   0.008
 total augmentation occupancy for first ion, spin component:           2
 -0.002   0.001   0.000   0.000   0.000
  0.001  -0.000  -0.000  -0.000   0.000
  0.000  -0.000  -0.000   0.000   0.000
  0.000  -0.000   0.000  -0.000   0.000
  0.000   0.000   0.000   0.000  -0.000


------------------------ aborting loop because EDIFF is reached ----------------------------------------


 


 total charge     
 
# of ion     s       p       d       tot
----------------------------------------
  1        0.522   0.013   0.000   0.535
  2        0.522   0.013   0.000   0.535
  3        0.525   0.013   0.000   0.539
  4        0.525   0.013   0.000   0.539
  5        0.520   0.038   0.000   0.557
  6        0.520   0.038   0.000   0.557
  7        0.582   0.746   4.151   5.479
  8        0.582   0.746   4.151   5.479
------------------------------------------------
tot        4.298   1.620   8.302  14.220
 


 magnetization (x)
 
# of ion     s       p       d       tot
----------------------------------------
  1        0.000  -0.000   0.000   0.000
  2        0.000  -0.000   0.000   0.000
  3        0.000  -0.000   0.000   0.000
  4        0.000  -0.000   0.000   0.000
  5        0.001  -0.000   0.000   0.000
  6        0.001  -0.000   0.000   0.000
  7       -0.000  -0.000  -0.015  -0.015
  8       -0.000  -0.000  -0.015  -0.015
------------------------------------------------
tot        0.001  -0.001  -0.030  -0.030
 
    CHARGE:  cpu time    0.3959: real time    0.3974
    FORLOC:  cpu time    0.0010: real time    0.0012
    FORNL :  cpu time    1.5768: real time    1.5801
    STRESS:  cpu time    4.5723: real time    4.5855
    FORCOR:  cpu time    0.0170: real time    0.0171
    FORHAR:  cpu time    0.0020: real time    0.0028
    MIXING:  cpu time    0.0010: real time    0.0011
    OFIELD:  cpu time    0.0000: real time    0.0004

  FORCE on cell =-STRESS in cart. coord.  units (eV):
  Direction    XX          YY          ZZ          XY          YZ          ZX
  --------------------------------------------------------------------------------------
  Alpha Z    71.08461    71.08461    71.08461
  Ewald      12.28737     5.52556  -458.85725    -0.00000     1.15615     0.00000
  Hartree   162.03323   160.81233  -153.10360     0.00000     5.76143     0.00000
  E(xc)     -71.33343   -71.17724   -71.95001    -0.00000    -0.19548    -0.00000
  Local    -355.16970  -347.79782   430.37565    -0.00000    -9.93945    -0.00000
  n-local   -39.76074   -39.83044   -38.54844     0.18001     0.13933     0.11068
  augment    11.64538    11.60979    11.34309    -0.00000    -0.06757    -0.00000
  Kinetic   209.14491   209.71722   209.72522     1.19090     3.14529     0.16996
  Fock        0.00000     0.00000     0.00000     0.00000     0.00000     0.00000
  -------------------------------------------------------------------------------------
  Total      -0.06835    -0.05599     0.06928     0.00000    -0.00029     0.00000
  in kB      -1.67915    -1.37549     1.70199     0.00000    -0.00722     0.00000
  external pressure =       -0.45 kB  Pullay stress =        0.00 kB


 VOLUME and BASIS-vectors are now :
 -----------------------------------------------------------------------------
  energy-cutoff  :      520.00
  volume of cell :       65.22
      direct lattice vectors                 reciprocal lattice vectors
     0.000000000  3.071257525  0.070744420     0.000000000  0.327041241 -0.062589719
     3.057456611  0.000000000  0.000000000     0.327069237  0.000000000  0.000000000
     0.000000000 -1.335119409 -6.976211344     0.000000000  0.003316462 -0.143978991

  length of vectors
     3.072072193  3.057456611  7.102821169     0.332976646  0.327069237  0.144017183


 FORCES acting on ions
    electron-ion (+dipol)            ewald-force                    non-local-force                 convergence-correction
 -----------------------------------------------------------------------------------------------
   0.151E-13 -.227E+01 0.429E+02   -.281E-15 0.247E+01 -.444E+02   0.434E-18 -.201E+00 0.154E+01   -.417E-15 -.177E-02 -.493E-02
   0.203E-13 0.227E+01 -.429E+02   -.492E-15 -.247E+01 0.444E+02   -.434E-18 0.201E+00 -.154E+01   0.167E-15 0.177E-02 0.493E-02
   0.118E-13 0.128E+01 -.428E+02   -.596E-15 -.138E+01 0.444E+02   0.542E-19 0.103E+00 -.155E+01   0.236E-15 -.734E-03 0.452E-02
   0.320E-13 -.128E+01 0.428E+02   0.303E-15 0.138E+01 -.444E+02   -.542E-19 -.103E+00 0.155E+01   -.269E-15 0.734E-03 -.452E-02
   0.581E-15 -.308E+01 -.295E+02   0.419E-16 0.366E+01 0.310E+02   -.108E-18 -.577E+00 -.150E+01   0.960E-15 -.427E-02 -.570E-02
   -.238E-13 0.308E+01 0.295E+02   0.473E-15 -.366E+01 -.310E+02   0.108E-18 0.577E+00 0.150E+01   -.103E-14 0.427E-02 0.570E-02
   -.337E-13 -.779E+01 0.129E+03   -.229E-14 0.853E+01 -.128E+03   0.694E-17 -.740E+00 -.825E+00   0.295E-14 -.313E-02 0.567E-04
   -.254E-13 0.779E+01 -.129E+03   0.120E-14 -.853E+01 0.128E+03   -.694E-17 0.740E+00 0.825E+00   -.378E-14 0.313E-02 -.567E-04
 -----------------------------------------------------------------------------------------------
   -.312E-14 0.238E-11 -.904E-12   -.163E-14 0.178E-14 0.000E+00   0.000E+00 0.111E-15 -.222E-15   -.118E-14 -.376E-14 0.258E-14
 
 
 POSITION                                       TOTAL-FORCE (eV/Angst)
 -----------------------------------------------------------------------------------
      2.29309      0.30873     -5.53094        -0.000000      0.000317      0.000578
      0.76436      1.42741     -1.37453        -0.000000     -0.000317     -0.000578
      2.29309      0.02097     -1.41660         0.000000      0.001711      0.002604
      0.76436      1.71517     -5.48887        -0.000000     -0.001711     -0.002604
      0.76436     -0.25010     -2.58881        -0.000000      0.002986     -0.001029
      2.29309      1.98624     -4.31665        -0.000000     -0.002986      0.001029
      0.76436      0.16751     -4.35502        -0.000000      0.003666     -0.036965
      2.29309      1.56863     -2.55045        -0.000000     -0.003666      0.036965
 -----------------------------------------------------------------------------------
    total drift:                               -0.000000      0.000000     -0.000000


--------------------------------------------------------------------------------------------------------



  FREE ENERGIE OF THE ION-ELECTRON SYSTEM (eV)
  ---------------------------------------------------
  free  energy   TOTEN  =       -39.40684976 eV

  energy  without entropy=      -39.40509620  energy(sigma->0) =      -39.40597298
 


--------------------------------------------------------------------------------------------------------


    POTLOK:  cpu time    0.0960: real time    0.0970


--------------------------------------------------------------------------------------------------------


     LOOP+:  cpu time  173.2097: real time  173.8127
    4ORBIT:  cpu time    0.0000: real time    0.0000
 


 total charge     
 
# of ion     s       p       d       tot
----------------------------------------
  1        0.522   0.013   0.000   0.535
  2        0.522   0.013   0.000   0.535
  3        0.525   0.013   0.000   0.539
  4        0.525   0.013   0.000   0.539
  5        0.520   0.038   0.000   0.557
  6        0.520   0.038   0.000   0.557
  7        0.582   0.746   4.151   5.479
  8        0.582   0.746   4.151   5.479
------------------------------------------------
tot        4.298   1.620   8.302  14.220
 


 magnetization (x)
 
# of ion     s       p       d       tot
----------------------------------------
  1        0.000  -0.000   0.000   0.000
  2        0.000  -0.000   0.000   0.000
  3        0.000  -0.000   0.000   0.000
  4        0.000  -0.000   0.000   0.000
  5        0.001  -0.000   0.000   0.000
  6        0.001  -0.000   0.000   0.000
  7       -0.000  -0.000  -0.015  -0.015
  8       -0.000  -0.000  -0.015  -0.015
------------------------------------------------
tot        0.001  -0.001  -0.030  -0.030
 

 total amount of memory used by VASP on root node   129141. kBytes
========================================================================

   base      :      30000. kBytes
   nonl-proj :      70975. kBytes
   fftplans  :       1753. kBytes
   grid      :       1468. kBytes
   one-center:         62. kBytes
   wavefun   :      24883. kBytes
 
  
  
 General timing and accounting informations for this job:
 ========================================================
  
                  Total CPU time used (sec):      197.179
                            User time (sec):      181.646
                          System time (sec):       15.533
                         Elapsed time (sec):      198.956
  
                   Maximum memory used (kb):      198168.
                   Average memory used (kb):           0.
  
                          Minor page faults:        76172
                          Major page faults:            7
                 Voluntary context switches:         2701
