 vasp.5.4.1 24Jun15 (build Nov 23 2015 09:58:10) complex                        
  
 executed on             LinuxIFC date 2020.06.24  15:03:59
 running on   24 total cores
 distrk:  each k-point on   24 cores,    1 groups
 distr:  one band on NCORES_PER_BAND=   4 cores,    6 groups


--------------------------------------------------------------------------------------------------------


 INCAR:
 POTCAR:    PAW_PBE Am 08May2007                  
 POTCAR:    PAW_PBE I 08Apr2002                   
 POTCAR:    PAW_PBE Am 08May2007                  
   VRHFIN =Am:  [Xe,5d,4f]                                                      
   LEXCH  = PE                                                                  
   EATOM  =  2269.8918 eV,  166.8323 Ry                                         
                                                                                
   TITEL  = PAW_PBE Am 08May2007                                                
   LULTRA =        F    use ultrasoft PP ?                                      
   IUNSCR =        1    unscreen: 0-lin 1-nonlin 2-no                           
   RPACOR =    2.200    partial core radius                                     
   POMASS =  243.061; ZVAL   =   17.000    mass and valenz                      
   RCORE  =    2.800    outmost cutoff radius                                   
   RWIGS  =    3.000; RWIGS  =    1.588    wigner-seitz radius (au A)           
   ENMAX  =  255.875; ENMIN  =  191.906 eV                                      
   RCLOC  =    1.605    cutoff for local pot                                    
   LCOR   =        T    correct aug charges                                     
   LPAW   =        T    paw PP                                                  
   EAUG   =  456.748                                                            
   DEXC   =    0.000                                                            
   RMAX   =    2.860    core radius for proj-oper                               
   RAUG   =    1.300    factor for augmentation sphere                          
   RDEP   =    2.971    radius for radial grids                                 
   RDEPT  =    2.409    core radius for aug-charge                              
                                                                                
   Atomic configuration                                                         
   18 entries                                                                   
     n  l   j            E        occ.                                          
     1  0  0.50   -125581.5403   2.0000                                         
     2  0  0.50    -23773.0829   2.0000                                         
     2  1  1.50    -19497.2419   6.0000                                         
     3  0  0.50     -6071.0617   2.0000                                         
     3  1  1.50     -4894.5403   6.0000                                         
     3  2  2.50     -3930.3307  10.0000                                         
     4  0  0.50     -1582.7504   2.0000                                         
     4  1  1.50     -1199.2788   6.0000                                         
     4  2  2.50      -832.7836  10.0000                                         
     4  3  3.50      -450.6929  14.0000                                         
     5  0  0.50      -362.8566   2.0000                                         
     5  1  1.50      -242.3084   6.0000                                         
     5  2  2.50      -120.3610  10.0000                                         
     6  0  0.50       -57.1306   2.0000                                         
     7  0  0.50        -4.8501   2.0000                                         
     6  1  1.50       -27.6394   6.0000                                         
     6  2  1.50        -2.9507   2.0000                                         
     5  3  2.50        -9.6255   5.0000                                         
   Description                                                                  
     l       E           TYP  RCUT    TYP  RCUT                                 
     0    -57.1306112     23  2.500                                             
     0     -4.8500595     23  2.600                                             
     1    -27.6393626     23  2.500                                             
     1     27.2116520     23  2.500                                             
     2     -2.9507198     23  2.500                                             
     2      0.4294776     23  2.500                                             
     3     -9.6255083     23  2.800                                             
     3    -10.9860909     23  2.800                                             
  local pseudopotential read in
  partial core-charges read in
  partial kinetic energy density read in
  atomic valenz-charges read in
  non local Contribution for L=           0  read in
    real space projection operators read in
  non local Contribution for L=           0  read in
    real space projection operators read in
  non local Contribution for L=           1  read in
    real space projection operators read in
  non local Contribution for L=           1  read in
    real space projection operators read in
  non local Contribution for L=           2  read in
    real space projection operators read in
  non local Contribution for L=           2  read in
    real space projection operators read in
  non local Contribution for L=           3  read in
    real space projection operators read in
  non local Contribution for L=           3  read in
    real space projection operators read in
    PAW grid and wavefunctions read in
 
   number of l-projection  operators is LMAX  =           8
   number of lm-projection operators is LMMAX =          32
 
 POTCAR:    PAW_PBE I 08Apr2002                   
   VRHFIN =I : s2p5                                                             
   LEXCH  = PE                                                                  
   EATOM  =   315.8678 eV,   23.2156 Ry                                         
                                                                                
   TITEL  = PAW_PBE I 08Apr2002                                                 
   LULTRA =        F    use ultrasoft PP ?                                      
   IUNSCR =        1    unscreen: 0-lin 1-nonlin 2-no                           
   RPACOR =    2.200    partial core radius                                     
   POMASS =  126.904; ZVAL   =    7.000    mass and valenz                      
   RCORE  =    2.300    outmost cutoff radius                                   
   RWIGS  =    2.810; RWIGS  =    1.487    wigner-seitz radius (au A)           
   ENMAX  =  175.647; ENMIN  =  131.735 eV                                      
   ICORE  =        3    local potential                                         
   LCOR   =        T    correct aug charges                                     
   LPAW   =        T    paw PP                                                  
   EAUG   =  370.139                                                            
   DEXC   =    0.000                                                            
   RMAX   =    2.359    core radius for proj-oper                               
   RAUG   =    1.300    factor for augmentation sphere                          
   RDEP   =    2.392    radius for radial grids                                 
   RDEPT  =    2.170    core radius for aug-charge                              
                                                                                
   Atomic configuration                                                         
   13 entries                                                                   
     n  l   j            E        occ.                                          
     1  0  0.50    -32976.3739   2.0000                                         
     2  0  0.50     -5094.5933   2.0000                                         
     2  1  1.50     -4572.0131   6.0000                                         
     3  0  0.50     -1028.2813   2.0000                                         
     3  1  1.50      -859.0250   6.0000                                         
     3  2  2.50      -605.7620  10.0000                                         
     4  0  0.50      -180.5540   2.0000                                         
     4  1  1.50      -127.5306   6.0000                                         
     4  2  2.50       -50.2720  10.0000                                         
     5  0  0.50       -17.4058   2.0000                                         
     5  1  0.50        -7.0851   5.0000                                         
     5  2  1.50        -7.0750   0.0000                                         
     4  3  2.50        -7.0750   0.0000                                         
   Description                                                                  
     l       E           TYP  RCUT    TYP  RCUT                                 
     0    -17.4058016     23  2.300                                             
     0    -18.7663842     23  2.300                                             
     1     -7.0850686     23  2.300                                             
     1     -4.2150896     23  2.300                                             
     2     -7.0750295     23  2.300                                             
     3     -1.3605826     23  2.300                                             
  local pseudopotential read in
  partial core-charges read in
  partial kinetic energy density read in
  atomic valenz-charges read in
  non local Contribution for L=           0  read in
    real space projection operators read in
  non local Contribution for L=           0  read in
    real space projection operators read in
  non local Contribution for L=           1  read in
    real space projection operators read in
  non local Contribution for L=           1  read in
    real space projection operators read in
  non local Contribution for L=           2  read in
    real space projection operators read in
    PAW grid and wavefunctions read in
 
   number of l-projection  operators is LMAX  =           5
   number of lm-projection operators is LMMAX =          13
 
  PAW_PBE Am 08May2007                  :
 energy of atom  1       EATOM=-2269.8918
 kinetic energy error for atom=    0.0017 (will be added to EATOM!!)
  PAW_PBE I 08Apr2002                   :
 energy of atom  2       EATOM= -315.8678
 kinetic energy error for atom=    0.0009 (will be added to EATOM!!)
 
 
 POSCAR: Am2 I6                                  
  positions in direct lattice
  velocities in cartesian coordinates
 exchange correlation table for  LEXCH =        8
   RHO(1)=    0.500       N(1)  =     2000
   RHO(2)=  100.500       N(2)  =     4000
 


--------------------------------------------------------------------------------------------------------


 ion  position               nearest neighbor table
   1  0.257  0.743  0.250-   8 3.12   8 3.12   6 3.24   6 3.24   7 3.24   7 3.24   5 3.51   4 3.51

   2  0.743  0.257  0.750-   3 3.12   3 3.12   4 3.24   5 3.24   5 3.24   4 3.24   7 3.51   6 3.51

   3  0.105  0.895  0.750-   2 3.12   2 3.12
   4  0.341  0.659  0.931-   2 3.24   2 3.24   1 3.51
   5  0.341  0.659  0.569-   2 3.24   2 3.24   1 3.51
   6  0.659  0.341  0.431-   1 3.24   1 3.24   2 3.51
   7  0.659  0.341  0.069-   1 3.24   1 3.24   2 3.51
   8  0.895  0.105  0.250-   1 3.12   1 3.12
 
  LATTYP: Found a base centered orthorhombic cell.
 ALAT       =     4.2825257791
 B/A-ratio  =     3.8311841869
 C/A-ratio  =     2.3624283673
  
  Lattice vectors:
  
 A1 = (   2.1412628895,  -8.2035725223,   0.0000000000)
 A2 = (   2.1412628895,   8.2035725223,   0.0000000000)
 A3 = (   0.0000000000,   0.0000000000,  10.1171603840)


Analysis of symmetry for initial positions (statically):
=====================================================================
 Subroutine PRICEL returns:
 Original cell was already a primitive cell.
 

 Routine SETGRP: Setting up the symmetry group for a 
 base centered orthorhombic supercell.


 Subroutine GETGRP returns: Found  8 space group operations
 (whereof  4 operations were pure point group operations)
 out of a pool of  8 trial point group operations.


The static configuration has the point symmetry C_2h.
 The point group associated with its full space group is D_2h.


Analysis of symmetry for dynamics (positions and initial velocities):
=====================================================================
 Subroutine PRICEL returns:
 Original cell was already a primitive cell.
 

 Routine SETGRP: Setting up the symmetry group for a 
 base centered orthorhombic supercell.


 Subroutine GETGRP returns: Found  8 space group operations
 (whereof  4 operations were pure point group operations)
 out of a pool of  8 trial point group operations.


The dynamic configuration has the point symmetry C_2h.
 The point group associated with its full space group is D_2h.


Analysis of magnetic symmetry:
=====================================================================
 Subroutine PRICEL returns:
 Original cell was already a primitive cell.
 

 Subroutine MAGSYM returns: Found  8 space group operations
 (whereof  4 operations were pure point group operations)
 out of a pool of  8 trial space group operations
 (whereof  4 operations were pure point group operations)
 and found also     1 'primitive' translations


The magnetic configuration has the point symmetry C_2h.
 The point group associated with its full space group is D_2h.
 
 
 KPOINTS: K-Mesh                                  

Automatic generation of k-mesh.
Space group operators:
 irot       det(A)        alpha          n_x          n_y          n_z        tau_x        tau_y        tau_z
    1     1.000000     0.000000     1.000000     0.000000     0.000000     0.000000     0.000000     0.000000
    2    -1.000000     0.000000     1.000000     0.000000     0.000000     0.000000     0.000000     0.000000
    3     1.000000   179.999999     1.000000     0.000000     0.000000     0.000000     0.000000     0.000000
    4    -1.000000   179.999999     1.000000     0.000000     0.000000     0.000000     0.000000     0.000000
    5     1.000000   180.000000     0.000000     0.000000     1.000000     0.000000     0.000000     0.500000
    6    -1.000000   180.000000     0.000000     0.000000     1.000000     0.000000     0.000000     0.500000
    7     1.000000   180.000000     0.000000     1.000000     0.000000     0.000000     0.000000     0.500000
    8    -1.000000   180.000000     0.000000     1.000000     0.000000     0.000000     0.000000     0.500000
 
 Subroutine IBZKPT returns following result:
 ===========================================
 
 Found     26 irreducible k-points:
 
 Following reciprocal coordinates:
            Coordinates               Weight
  0.000000  0.000000  0.000000      1.000000
  0.166667  0.000000  0.000000      4.000000
  0.333333  0.000000  0.000000      4.000000
  0.500000  0.000000  0.000000      2.000000
  0.166667  0.166667  0.000000      2.000000
  0.333333  0.166667  0.000000      4.000000
  0.500000  0.166667  0.000000      4.000000
 -0.333333  0.166667  0.000000      4.000000
 -0.166667  0.166667  0.000000      2.000000
  0.333333  0.333333  0.000000      2.000000
  0.500000  0.333333  0.000000      4.000000
 -0.333333  0.333333  0.000000      2.000000
  0.500000  0.500000  0.000000      1.000000
  0.000000  0.000000  0.500000      1.000000
  0.166667  0.000000  0.500000      4.000000
  0.333333  0.000000  0.500000      4.000000
  0.500000  0.000000  0.500000      2.000000
  0.166667  0.166667  0.500000      2.000000
  0.333333  0.166667  0.500000      4.000000
  0.500000  0.166667  0.500000      4.000000
 -0.333333  0.166667  0.500000      4.000000
 -0.166667  0.166667  0.500000      2.000000
  0.333333  0.333333  0.500000      2.000000
  0.500000  0.333333  0.500000      4.000000
 -0.333333  0.333333  0.500000      2.000000
  0.500000  0.500000  0.500000      1.000000
 
 Following cartesian coordinates:
            Coordinates               Weight
  0.000000  0.000000  0.000000      1.000000
  0.038918 -0.010158  0.000000      4.000000
  0.077836 -0.020316  0.000000      4.000000
  0.116754 -0.030475  0.000000      2.000000
  0.077836  0.000000  0.000000      2.000000
  0.116754 -0.010158  0.000000      4.000000
  0.155671 -0.020316  0.000000      4.000000
 -0.038918  0.030475  0.000000      4.000000
  0.000000  0.020316  0.000000      2.000000
  0.155671  0.000000  0.000000      2.000000
  0.194589 -0.010158  0.000000      4.000000
  0.000000  0.040633  0.000000      2.000000
  0.233507  0.000000  0.000000      1.000000
  0.000000  0.000000  0.049421      1.000000
  0.038918 -0.010158  0.049421      4.000000
  0.077836 -0.020316  0.049421      4.000000
  0.116754 -0.030475  0.049421      2.000000
  0.077836  0.000000  0.049421      2.000000
  0.116754 -0.010158  0.049421      4.000000
  0.155671 -0.020316  0.049421      4.000000
 -0.038918  0.030475  0.049421      4.000000
  0.000000  0.020316  0.049421      2.000000
  0.155671  0.000000  0.049421      2.000000
  0.194589 -0.010158  0.049421      4.000000
  0.000000  0.040633  0.049421      2.000000
  0.233507  0.000000  0.049421      1.000000
 


--------------------------------------------------------------------------------------------------------




 Dimension of arrays:
   k-points           NKPTS =     26   k-points in BZ     NKDIM =     26   number of bands    NBANDS=     54
   number of dos      NEDOS =    301   number of ions     NIONS =      8
   non local maximal  LDIM  =      8   non local SUM 2l+1 LMDIM =     32
   total plane-waves  NPLWV = 327680
   max r-space proj   IRMAX =      1   max aug-charges    IRDMAX= 556706
   dimension x,y,z NGX =    64 NGY =   64 NGZ =   80
   dimension x,y,z NGXF=   128 NGYF=  128 NGZF=  160
   support grid    NGXF=   256 NGYF=  256 NGZF=  320
   ions per type =               2   6
 NGX,Y,Z   is equivalent  to a cutoff of  12.55, 12.55, 13.15 a.u.
 NGXF,Y,Z  is equivalent  to a cutoff of  25.10, 25.10, 26.29 a.u.


 I would recommend the setting:
   dimension x,y,z NGX =    63 NGY =   63 NGZ =   75
 SYSTEM =  matgen-scf                              
 POSCAR =  Am2 I6                                  

 Startparameter for this run:
   NWRITE =      2    write-flag & timer
   PREC   = accura    normal or accurate (medium, high low for compatibility)
   ISTART =      0    job   : 0-new  1-cont  2-samecut
   ICHARG =      2    charge: 1-file 2-atom 10-const
   ISPIN  =      2    spin polarized calculation?
   LNONCOLLINEAR =      F non collinear calculations
   LSORBIT =      F    spin-orbit coupling
   INIWAV =      1    electr: 0-lowe 1-rand  2-diag
   LASPH  =      F    aspherical Exc in radial PAW
   METAGGA=      F    non-selfconsistent MetaGGA calc.

 Electronic Relaxation 1
   ENCUT  =  520.0 eV  38.22 Ry    6.18 a.u.  15.76 15.76 18.81*2*pi/ulx,y,z
   ENINI  =  520.0     initial cutoff
   ENAUG  =  456.7 eV  augmentation charge cutoff
   NELM   =    140;   NELMIN=  6; NELMDL= -5     # of ELM steps 
   EDIFF  = 0.1E-03   stopping-criterion for ELM
   LREAL  =      F    real-space projection
   NLSPLINE    = F    spline interpolate recip. space projectors
   LCOMPAT=      F    compatible to vasp.4.4
   GGA_COMPAT  = T    GGA compatible to vasp.4.4-vasp.4.6
   LMAXPAW     = -100 max onsite density
   LMAXMIX     =    2 max onsite mixed and CHGCAR
   VOSKOWN=      0    Vosko Wilk Nusair interpolation
   ROPT   =    0.00000   0.00000
 Ionic relaxation
   EDIFFG = -.1E-01   stopping-criterion for IOM
   NSW    =      0    number of steps for IOM
   NBLOCK =      1;   KBLOCK =      1    inner block; outer block 
   IBRION =     -1    ionic relax: 0-MD 1-quasi-New 2-CG
   NFREE  =      0    steps in history (QN), initial steepest desc. (CG)
   ISIF   =      2    stress and relaxation
   IWAVPR =     10    prediction:  0-non 1-charg 2-wave 3-comb
   ISYM   =      2    0-nonsym 1-usesym 2-fastsym
   LCORR  =      T    Harris-Foulkes like correction to forces

   POTIM  = 0.0500    time-step for ionic-motion
   TEIN   =    0.0    initial temperature
   TEBEG  =    0.0;   TEEND  =   0.0 temperature during run
   SMASS  =  -3.00    Nose mass-parameter (am)
   estimated Nose-frequenzy (Omega)   =  0.10E-29 period in steps =****** mass=  -0.164E-26a.u.
   SCALEE = 1.0000    scale energy and forces
   NPACO  =    256;   APACO  = 16.0  distance and # of slots for P.C.
   PSTRESS=    0.0 pullay stress

  Mass of Ions in am
   POMASS = 243.06126.90
  Ionic Valenz
   ZVAL   =  17.00  7.00
  Atomic Wigner-Seitz radii
   RWIGS  =  -1.00 -1.00
  virtual crystal weights 
   VCA    =   1.00  1.00
   NELECT =      76.0000    total number of electrons
   NUPDOWN=      -1.0000    fix difference up-down

 DOS related values:
   EMIN   =  10.00;   EMAX   =-10.00  energy-range for DOS
   EFERMI =   0.00
   ISMEAR =     0;   SIGMA  =   0.05  broadening in eV -4-tet -1-fermi 0-gaus

 Electronic relaxation 2 (details)
   IALGO  =     38    algorithm
   LDIAG  =      T    sub-space diagonalisation (order eigenvalues)
   LSUBROT=      F    optimize rotation matrix (better conditioning)
   TURBO    =      0    0=normal 1=particle mesh
   IRESTART =      0    0=no restart 2=restart with 2 vectors
   NREBOOT  =      0    no. of reboots
   NMIN     =      0    reboot dimension
   EREF     =   0.00    reference energy to select bands
   IMIX   =      4    mixing-type and parameters
     AMIX     =   0.10;   BMIX     =  1.20
     AMIX_MAG =   0.40;   BMIX_MAG =  1.20
     AMIN     =   0.10
     WC   =   100.;   INIMIX=   1;  MIXPRE=   1;  MAXMIX= -45

 Intra band minimization:
   WEIMIN = 0.0000     energy-eigenvalue tresh-hold
   EBREAK =  0.46E-06  absolut break condition
   DEPER  =   0.30     relativ break condition  

   TIME   =   0.40     timestep for ELM

  volume/ion in A,a.u.               =      44.43       299.83
  Fermi-wavevector in a.u.,A,eV,Ry     =   0.978946  1.849940 13.038948  0.958336
  Thomas-Fermi vector in A             =   2.109761
 
 Write flags
   LWAVE  =      F    write WAVECAR
   LCHARG =      T    write CHGCAR
   LVTOT  =      F    write LOCPOT, total local potential
   LVHAR  =      F    write LOCPOT, Hartree potential only
   LELF   =      F    write electronic localiz. function (ELF)
   LORBIT =     11    0 simple, 1 ext, 2 COOP (PROOUT)


 Dipole corrections
   LMONO  =      F    monopole corrections only (constant potential shift)
   LDIPOL =      F    correct potential (dipole corrections)
   IDIPOL =      0    1-x, 2-y, 3-z, 4-all directions 
   EPSILON=  1.0000000 bulk dielectric constant

 Exchange correlation treatment:
   GGA     =    --    GGA type
   LEXCH   =     8    internal setting for exchange type
   VOSKOWN=      0    Vosko Wilk Nusair interpolation
   LHFCALC =     F    Hartree Fock is set to
   LHFONE  =     F    Hartree Fock one center treatment
   AEXX    =    0.0000 exact exchange contribution

 Linear response parameters
   LEPSILON=     F    determine dielectric tensor
   LRPA    =     F    only Hartree local field effects (RPA)
   LNABLA  =     F    use nabla operator in PAW spheres
   LVEL    =     F    velocity operator in full k-point grid
   LINTERFAST=   F  fast interpolation
   KINTER  =     0    interpolate to denser k-point grid
   CSHIFT  =0.1000    complex shift for real part using Kramers Kronig
   OMEGAMAX=  -1.0    maximum frequency
   DEG_THRESHOLD= 0.2000000E-02 threshold for treating states as degnerate
   RTIME   =    0.100 relaxation time in fs

 Orbital magnetization related:
   ORBITALMAG=     F  switch on orbital magnetization
   LCHIMAG   =     F  perturbation theory with respect to B field
   DQ        =  0.001000  dq finite difference perturbation B field



--------------------------------------------------------------------------------------------------------


 Static calculation
 charge density and potential will be updated during run
 spin polarized calculation
 Variant of blocked Davidson
 Davidson routine will perform the subspace rotation
 perform sub-space diagonalisation
    after iterative eigenvector-optimisation
 modified Broyden-mixing scheme, WC =      100.0
 initial mixing is a Kerker type mixing with AMIX =  0.1000 and BMIX =      1.2000
 Hartree-type preconditioning will be used
 using additional bands           16
 reciprocal scheme for non local part
 use partial core corrections
 calculate Harris-corrections to forces 
   (improved forces if not selfconsistent)
 use gradient corrections 
 use of overlap-Matrix (Vanderbilt PP)
 Gauss-broadening in eV      SIGMA  =   0.05


--------------------------------------------------------------------------------------------------------


  energy-cutoff  :      520.00
  volume of cell :      355.44
      direct lattice vectors                 reciprocal lattice vectors
     2.141262890 -8.203572522  0.000000000     0.233507059 -0.060949056  0.000000000
     2.141262890  8.203572522  0.000000000     0.233507059  0.060949056  0.000000000
     0.000000000  0.000000000 10.117160384     0.000000000  0.000000000  0.098841964

  length of vectors
     8.478420188  8.478420188 10.117160384     0.241330342  0.241330342  0.098841964


 
 k-points in units of 2pi/SCALE and weight: K-Mesh                                  
   0.00000000  0.00000000  0.00000000       0.014
   0.03891784 -0.01015818  0.00000000       0.056
   0.07783569 -0.02031635  0.00000000       0.056
   0.11675353 -0.03047453  0.00000000       0.028
   0.07783569  0.00000000  0.00000000       0.028
   0.11675353 -0.01015818  0.00000000       0.056
   0.15567137 -0.02031635  0.00000000       0.056
  -0.03891784  0.03047453  0.00000000       0.056
   0.00000000  0.02031635  0.00000000       0.028
   0.15567137  0.00000000  0.00000000       0.028
   0.19458922 -0.01015818  0.00000000       0.056
   0.00000000  0.04063270  0.00000000       0.028
   0.23350706  0.00000000  0.00000000       0.014
   0.00000000  0.00000000  0.04942098       0.014
   0.03891784 -0.01015818  0.04942098       0.056
   0.07783569 -0.02031635  0.04942098       0.056
   0.11675353 -0.03047453  0.04942098       0.028
   0.07783569  0.00000000  0.04942098       0.028
   0.11675353 -0.01015818  0.04942098       0.056
   0.15567137 -0.02031635  0.04942098       0.056
  -0.03891784  0.03047453  0.04942098       0.056
   0.00000000  0.02031635  0.04942098       0.028
   0.15567137  0.00000000  0.04942098       0.028
   0.19458922 -0.01015818  0.04942098       0.056
   0.00000000  0.04063270  0.04942098       0.028
   0.23350706  0.00000000  0.04942098       0.014
 
 k-points in reciprocal lattice and weights: K-Mesh                                  
   0.00000000  0.00000000  0.00000000       0.014
   0.16666667  0.00000000  0.00000000       0.056
   0.33333333  0.00000000  0.00000000       0.056
   0.50000000  0.00000000  0.00000000       0.028
   0.16666667  0.16666667  0.00000000       0.028
   0.33333333  0.16666667  0.00000000       0.056
   0.50000000  0.16666667  0.00000000       0.056
  -0.33333333  0.16666667  0.00000000       0.056
  -0.16666667  0.16666667  0.00000000       0.028
   0.33333333  0.33333333  0.00000000       0.028
   0.50000000  0.33333333  0.00000000       0.056
  -0.33333333  0.33333333  0.00000000       0.028
   0.50000000  0.50000000  0.00000000       0.014
   0.00000000  0.00000000  0.50000000       0.014
   0.16666667  0.00000000  0.50000000       0.056
   0.33333333  0.00000000  0.50000000       0.056
   0.50000000  0.00000000  0.50000000       0.028
   0.16666667  0.16666667  0.50000000       0.028
   0.33333333  0.16666667  0.50000000       0.056
   0.50000000  0.16666667  0.50000000       0.056
  -0.33333333  0.16666667  0.50000000       0.056
  -0.16666667  0.16666667  0.50000000       0.028
   0.33333333  0.33333333  0.50000000       0.028
   0.50000000  0.33333333  0.50000000       0.056
  -0.33333333  0.33333333  0.50000000       0.028
   0.50000000  0.50000000  0.50000000       0.014
 
 position of ions in fractional coordinates (direct lattice) 
   0.25696246  0.74303754  0.25000000
   0.74303754  0.25696246  0.75000000
   0.10470212  0.89529788  0.75000000
   0.34080570  0.65919430  0.93129521
   0.34080570  0.65919430  0.56870479
   0.65919430  0.34080570  0.43129521
   0.65919430  0.34080570  0.06870479
   0.89529788  0.10470212  0.25000000
 
 position of ions in cartesian coordinates  (Angst):
   2.14126289  3.98755225  2.52929010
   2.14126289 -3.98755225  7.58787029
   2.14126289  6.48570958  7.58787029
   2.14126289  2.61192405  9.42206301
   2.14126289  2.61192405  5.75367756
   2.14126289 -2.61192405  4.36348282
   2.14126289 -2.61192405  0.69509737
   2.14126289 -6.48570958  2.52929010
 


--------------------------------------------------------------------------------------------------------


 k-point  1 :   0.0000 0.0000 0.0000  plane waves:    9541
 k-point  2 :   0.1667 0.0000 0.0000  plane waves:    9579
 k-point  3 :   0.3333 0.0000 0.0000  plane waves:    9579
 k-point  4 :   0.5000 0.0000 0.0000  plane waves:    9594
 k-point  5 :   0.1667 0.1667 0.0000  plane waves:    9582
 k-point  6 :   0.3333 0.1667 0.0000  plane waves:    9583
 k-point  7 :   0.5000 0.1667 0.0000  plane waves:    9593
 k-point  8 :  -0.3333 0.1667 0.0000  plane waves:    9548
 k-point  9 :  -0.1667 0.1667 0.0000  plane waves:    9555
 k-point 10 :   0.3333 0.3333 0.0000  plane waves:    9568
 k-point 11 :   0.5000 0.3333 0.0000  plane waves:    9565
 k-point 12 :  -0.3333 0.3333 0.0000  plane waves:    9558
 k-point 13 :   0.5000 0.5000 0.0000  plane waves:    9542
 k-point 14 :   0.0000 0.0000 0.5000  plane waves:    9534
 k-point 15 :   0.1667 0.0000 0.5000  plane waves:    9564
 k-point 16 :   0.3333 0.0000 0.5000  plane waves:    9566
 k-point 17 :   0.5000 0.0000 0.5000  plane waves:    9588
 k-point 18 :   0.1667 0.1667 0.5000  plane waves:    9574
 k-point 19 :   0.3333 0.1667 0.5000  plane waves:    9594
 k-point 20 :   0.5000 0.1667 0.5000  plane waves:    9578
 k-point 21 :  -0.3333 0.1667 0.5000  plane waves:    9562
 k-point 22 :  -0.1667 0.1667 0.5000  plane waves:    9520
 k-point 23 :   0.3333 0.3333 0.5000  plane waves:    9610
 k-point 24 :   0.5000 0.3333 0.5000  plane waves:    9566
 k-point 25 :  -0.3333 0.3333 0.5000  plane waves:    9554
 k-point 26 :   0.5000 0.5000 0.5000  plane waves:    9532

 maximum and minimum number of plane-waves per node :      2425     2371

 maximum number of plane-waves:      9610
 maximum index in each direction: 
   IXMAX=   16   IYMAX=   15   IZMAX=   18
   IXMIN=  -16   IYMIN=  -16   IZMIN=  -19

 WARNING: aliasing errors must be expected set NGX to  66 to avoid them
 NGY is ok and might be reduce to  64
 NGZ is ok and might be reduce to  76
 aliasing errors are usually negligible using standard VASP settings
 and one can safely disregard these warnings

 parallel 3D FFT for wavefunctions:
    minimum data exchange during FFTs selected (reduces bandwidth)
 parallel 3D FFT for charge:
    minimum data exchange during FFTs selected (reduces bandwidth)


 total amount of memory used by VASP on root node   116490. kBytes
========================================================================

   base      :      30000. kBytes
   nonl-proj :      32417. kBytes
   fftplans  :      18942. kBytes
   grid      :      16515. kBytes
   one-center:        196. kBytes
   wavefun   :      18420. kBytes
 
     INWAV:  cpu time    0.0000: real time    0.0010
 Broyden mixing: mesh for mixing (old mesh)
   NGX = 31   NGY = 31   NGZ = 37
  (NGX  =128   NGY  =128   NGZ  =160)
  gives a total of  35557 points

 initial charge density was supplied:
 charge density of overlapping atoms calculated
 number of electron      76.0000000 magnetization       8.0000000
 keeping initial charge density in first step


--------------------------------------------------------------------------------------------------------


 Maximum index for augmentation-charges        23542 (set IRDMAX)


--------------------------------------------------------------------------------------------------------


 First call to EWALD:  gamma=   0.250
 Maximum number of real-space cells 4x 4x 2
 Maximum number of reciprocal cells 3x 3x 4

 FEWALD executed in parallel
    FEWALD:  cpu time    0.0010: real time    0.0020


----------------------------------------- Iteration    1(   1)  ---------------------------------------


    POTLOK:  cpu time    0.2640: real time    0.2664
    SETDIJ:  cpu time    0.5489: real time    0.5510
     EDDAV:  cpu time   12.1761: real time   12.2457
       DOS:  cpu time    0.0020: real time    0.0027
    --------------------------------------------
      LOOP:  cpu time   12.9960: real time   13.0864

 eigenvalue-minimisations  :  5616
 total energy-change (2. order) : 0.5948047E+03  (-0.3148434E+04)
 number of electron      76.0000000 magnetization       8.0000000
 augmentation part       76.0000000 magnetization       8.0000000

 Free energy of the ion-electron system (eV)
  ---------------------------------------------------
  alpha Z        PSCENC =       101.00659627
  Ewald energy   TEWEN  =     -3778.83224094
  -Hartree energ DENC   =     -2531.70847340
  -exchange      EXHF   =         0.00000000
  -V(xc)+E(xc)   XCENC  =        49.37101392
  PAW double counting   =      5526.30243026    -5325.07758702
  entropy T*S    EENTRO =        -0.00631974
  eigenvalues    EBANDS =       118.76738594
  atomic energy  EATOM  =      6434.98193557
  Solvation  Ediel_sol  =         0.00000000
  ---------------------------------------------------
  free energy    TOTEN  =       594.80474086 eV

  energy without entropy =      594.81106061  energy(sigma->0) =      594.80790073


--------------------------------------------------------------------------------------------------------




----------------------------------------- Iteration    1(   2)  ---------------------------------------


     EDDAV:  cpu time   13.7549: real time   13.8207
       DOS:  cpu time    0.0020: real time    0.0017
    --------------------------------------------
      LOOP:  cpu time   13.7589: real time   13.8396

 eigenvalue-minimisations  :  6660
 total energy-change (2. order) :-0.5861142E+03  (-0.5669208E+03)
 number of electron      76.0000000 magnetization       8.0000000
 augmentation part       76.0000000 magnetization       8.0000000

 Free energy of the ion-electron system (eV)
  ---------------------------------------------------
  alpha Z        PSCENC =       101.00659627
  Ewald energy   TEWEN  =     -3778.83224094
  -Hartree energ DENC   =     -2531.70847340
  -exchange      EXHF   =         0.00000000
  -V(xc)+E(xc)   XCENC  =        49.37101392
  PAW double counting   =      5526.30243026    -5325.07758702
  entropy T*S    EENTRO =        -0.01337514
  eigenvalues    EBANDS =      -467.33980835
  atomic energy  EATOM  =      6434.98193557
  Solvation  Ediel_sol  =         0.00000000
  ---------------------------------------------------
  free energy    TOTEN  =         8.69049118 eV

  energy without entropy =        8.70386632  energy(sigma->0) =        8.69717875


--------------------------------------------------------------------------------------------------------




----------------------------------------- Iteration    1(   3)  ---------------------------------------


     EDDAV:  cpu time   13.8229: real time   13.8702
       DOS:  cpu time    0.0010: real time    0.0017
    --------------------------------------------
      LOOP:  cpu time   13.8269: real time   13.8936

 eigenvalue-minimisations  :  6708
 total energy-change (2. order) :-0.8093324E+02  (-0.7958263E+02)
 number of electron      76.0000000 magnetization       8.0000000
 augmentation part       76.0000000 magnetization       8.0000000

 Free energy of the ion-electron system (eV)
  ---------------------------------------------------
  alpha Z        PSCENC =       101.00659627
  Ewald energy   TEWEN  =     -3778.83224094
  -Hartree energ DENC   =     -2531.70847340
  -exchange      EXHF   =         0.00000000
  -V(xc)+E(xc)   XCENC  =        49.37101392
  PAW double counting   =      5526.30243026    -5325.07758702
  entropy T*S    EENTRO =        -0.01894698
  eigenvalues    EBANDS =      -548.26747794
  atomic energy  EATOM  =      6434.98193557
  Solvation  Ediel_sol  =         0.00000000
  ---------------------------------------------------
  free energy    TOTEN  =       -72.24275025 eV

  energy without entropy =      -72.22380327  energy(sigma->0) =      -72.23327676


--------------------------------------------------------------------------------------------------------




----------------------------------------- Iteration    1(   4)  ---------------------------------------


     EDDAV:  cpu time   18.6592: real time   18.7271
       DOS:  cpu time    0.0020: real time    0.0017
    --------------------------------------------
      LOOP:  cpu time   18.6642: real time   18.7538

 eigenvalue-minimisations  :  9900
 total energy-change (2. order) :-0.7280857E+01  (-0.7242321E+01)
 number of electron      76.0000000 magnetization       8.0000000
 augmentation part       76.0000000 magnetization       8.0000000

 Free energy of the ion-electron system (eV)
  ---------------------------------------------------
  alpha Z        PSCENC =       101.00659627
  Ewald energy   TEWEN  =     -3778.83224094
  -Hartree energ DENC   =     -2531.70847340
  -exchange      EXHF   =         0.00000000
  -V(xc)+E(xc)   XCENC  =        49.37101392
  PAW double counting   =      5526.30243026    -5325.07758702
  entropy T*S    EENTRO =        -0.01751149
  eigenvalues    EBANDS =      -555.54977085
  atomic energy  EATOM  =      6434.98193557
  Solvation  Ediel_sol  =         0.00000000
  ---------------------------------------------------
  free energy    TOTEN  =       -79.52360767 eV

  energy without entropy =      -79.50609618  energy(sigma->0) =      -79.51485193


--------------------------------------------------------------------------------------------------------




----------------------------------------- Iteration    1(   5)  ---------------------------------------


     EDDAV:  cpu time   16.1325: real time   16.1936
       DOS:  cpu time    0.0020: real time    0.0018
    CHARGE:  cpu time    1.2738: real time    1.2788
    MIXING:  cpu time    0.0070: real time    0.0069
    --------------------------------------------
      LOOP:  cpu time   17.4184: real time   17.4996

 eigenvalue-minimisations  :  8232
 total energy-change (2. order) :-0.2332170E+00  (-0.2330102E+00)
 number of electron      76.0000001 magnetization       7.6920531
 augmentation part       12.0404808 magnetization       3.0072173

 Broyden mixing:
  rms(total) = 0.64324E+01    rms(broyden)= 0.64324E+01
  rms(prec ) = 0.10596E+02
  weight for this iteration     100.00

 Free energy of the ion-electron system (eV)
  ---------------------------------------------------
  alpha Z        PSCENC =       101.00659627
  Ewald energy   TEWEN  =     -3778.83224094
  -Hartree energ DENC   =     -2531.70847340
  -exchange      EXHF   =         0.00000000
  -V(xc)+E(xc)   XCENC  =        49.37101392
  PAW double counting   =      5526.30243026    -5325.07758702
  entropy T*S    EENTRO =        -0.01727975
  eigenvalues    EBANDS =      -555.78321957
  atomic energy  EATOM  =      6434.98193557
  Solvation  Ediel_sol  =         0.00000000
  ---------------------------------------------------
  free energy    TOTEN  =       -79.75682465 eV

  energy without entropy =      -79.73954490  energy(sigma->0) =      -79.74818478


--------------------------------------------------------------------------------------------------------




----------------------------------------- Iteration    1(   6)  ---------------------------------------


    POTLOK:  cpu time    0.2620: real time    0.2620
    SETDIJ:  cpu time    0.5519: real time    0.5545
     EDDAV:  cpu time   16.2425: real time   16.2994
       DOS:  cpu time    0.0020: real time    0.0018
    CHARGE:  cpu time    1.2688: real time    1.2713
    MIXING:  cpu time    0.0060: real time    0.0065
    --------------------------------------------
      LOOP:  cpu time   18.3362: real time   18.4186

 eigenvalue-minimisations  :  8382
 total energy-change (2. order) : 0.2513071E-01  (-0.2982535E+02)
 number of electron      75.9999999 magnetization       7.4195930
 augmentation part      -13.2409479 magnetization       5.7598413

 Broyden mixing:
  rms(total) = 0.60520E+01    rms(broyden)= 0.60520E+01
  rms(prec ) = 0.91206E+01
  weight for this iteration     100.00

 eigenvalues of (default mixing * dielectric matrix)
  average eigenvalue GAMMA=   0.5169
  0.5169

 Free energy of the ion-electron system (eV)
  ---------------------------------------------------
  alpha Z        PSCENC =       101.00659627
  Ewald energy   TEWEN  =     -3778.83224094
  -Hartree energ DENC   =     -2790.17226892
  -exchange      EXHF   =         0.00000000
  -V(xc)+E(xc)   XCENC  =        55.32970559
  PAW double counting   =      5910.14894027    -5719.98908872
  entropy T*S    EENTRO =        -0.01098727
  eigenvalues    EBANDS =      -292.19428580
  atomic energy  EATOM  =      6434.98193557
  Solvation  Ediel_sol  =         0.00000000
  ---------------------------------------------------
  free energy    TOTEN  =       -79.73169394 eV

  energy without entropy =      -79.72070667  energy(sigma->0) =      -79.72620031


--------------------------------------------------------------------------------------------------------




----------------------------------------- Iteration    1(   7)  ---------------------------------------


    POTLOK:  cpu time    0.2610: real time    0.2620
    SETDIJ:  cpu time    0.5519: real time    0.5529
     EDDAV:  cpu time   15.6446: real time   15.6998
       DOS:  cpu time    0.0020: real time    0.0020
    CHARGE:  cpu time    1.3468: real time    1.3511
    MIXING:  cpu time    0.0070: real time    0.0062
    --------------------------------------------
      LOOP:  cpu time   17.8163: real time   17.8934

 eigenvalue-minimisations  :  7980
 total energy-change (2. order) : 0.3488241E+02  (-0.1468893E+02)
 number of electron      76.0000000 magnetization       7.5169257
 augmentation part       -3.8947868 magnetization       4.4977481

 Broyden mixing:
  rms(total) = 0.39835E+01    rms(broyden)= 0.39835E+01
  rms(prec ) = 0.42446E+01
  weight for this iteration     100.00

 eigenvalues of (default mixing * dielectric matrix)
  average eigenvalue GAMMA=   0.3199
  0.4928  0.1469

 Free energy of the ion-electron system (eV)
  ---------------------------------------------------
  alpha Z        PSCENC =       101.00659627
  Ewald energy   TEWEN  =     -3778.83224094
  -Hartree energ DENC   =     -2667.72380156
  -exchange      EXHF   =         0.00000000
  -V(xc)+E(xc)   XCENC  =        52.40038256
  PAW double counting   =      5902.26209790    -5712.60127096
  entropy T*S    EENTRO =        -0.04849729
  eigenvalues    EBANDS =      -376.29448224
  atomic energy  EATOM  =      6434.98193557
  Solvation  Ediel_sol  =         0.00000000
  ---------------------------------------------------
  free energy    TOTEN  =       -44.84928067 eV

  energy without entropy =      -44.80078338  energy(sigma->0) =      -44.82503202


--------------------------------------------------------------------------------------------------------




----------------------------------------- Iteration    1(   8)  ---------------------------------------


    POTLOK:  cpu time    0.2610: real time    0.2621
    SETDIJ:  cpu time    0.5489: real time    0.5511
     EDDAV:  cpu time   14.4508: real time   14.5012
       DOS:  cpu time    0.0020: real time    0.0020
    CHARGE:  cpu time    1.2848: real time    1.2880
    MIXING:  cpu time    0.0070: real time    0.0063
    --------------------------------------------
      LOOP:  cpu time   16.5585: real time   16.6361

 eigenvalue-minimisations  :  7194
 total energy-change (2. order) :-0.9366758E+00  (-0.6177327E+00)
 number of electron      76.0000000 magnetization       8.0122075
 augmentation part       -3.8258916 magnetization       5.0234241

 Broyden mixing:
  rms(total) = 0.38110E+01    rms(broyden)= 0.38110E+01
  rms(prec ) = 0.40320E+01
  weight for this iteration     100.00

 eigenvalues of (default mixing * dielectric matrix)
  average eigenvalue GAMMA=   0.7401
  0.5651  0.8275  0.8275

 Free energy of the ion-electron system (eV)
  ---------------------------------------------------
  alpha Z        PSCENC =       101.00659627
  Ewald energy   TEWEN  =     -3778.83224094
  -Hartree energ DENC   =     -2663.19893700
  -exchange      EXHF   =         0.00000000
  -V(xc)+E(xc)   XCENC  =        52.39148424
  PAW double counting   =      5906.36518929    -5717.94257470
  entropy T*S    EENTRO =        -0.04457286
  eigenvalues    EBANDS =      -380.51283632
  atomic energy  EATOM  =      6434.98193557
  Solvation  Ediel_sol  =         0.00000000
  ---------------------------------------------------
  free energy    TOTEN  =       -45.78595644 eV

  energy without entropy =      -45.74138358  energy(sigma->0) =      -45.76367001


--------------------------------------------------------------------------------------------------------




----------------------------------------- Iteration    1(   9)  ---------------------------------------


    POTLOK:  cpu time    0.2620: real time    0.2627
    SETDIJ:  cpu time    0.5499: real time    0.5524
     EDDAV:  cpu time   17.0474: real time   17.1129
       DOS:  cpu time    0.0020: real time    0.0019
    CHARGE:  cpu time    1.2698: real time    1.2737
    MIXING:  cpu time    0.0060: real time    0.0061
    --------------------------------------------
      LOOP:  cpu time   19.1411: real time   19.2330

 eigenvalue-minimisations  :  8946
 total energy-change (2. order) :-0.1883041E+01  (-0.1777772E+00)
 number of electron      76.0000000 magnetization       9.4729923
 augmentation part       -3.4660161 magnetization       6.7667824

 Broyden mixing:
  rms(total) = 0.28661E+01    rms(broyden)= 0.28661E+01
  rms(prec ) = 0.30555E+01
  weight for this iteration     100.00

 eigenvalues of (default mixing * dielectric matrix)
  average eigenvalue GAMMA=   1.2138
  1.7657  1.7657  0.6619  0.6619

 Free energy of the ion-electron system (eV)
  ---------------------------------------------------
  alpha Z        PSCENC =       101.00659627
  Ewald energy   TEWEN  =     -3778.83224094
  -Hartree energ DENC   =     -2654.78144224
  -exchange      EXHF   =         0.00000000
  -V(xc)+E(xc)   XCENC  =        53.06084945
  PAW double counting   =      5888.66801887    -5704.54017482
  entropy T*S    EENTRO =        -0.03924166
  eigenvalues    EBANDS =      -387.19329775
  atomic energy  EATOM  =      6434.98193557
  Solvation  Ediel_sol  =         0.00000000
  ---------------------------------------------------
  free energy    TOTEN  =       -47.66899725 eV

  energy without entropy =      -47.62975559  energy(sigma->0) =      -47.64937642


--------------------------------------------------------------------------------------------------------




----------------------------------------- Iteration    1(  10)  ---------------------------------------


    POTLOK:  cpu time    0.2610: real time    0.2628
    SETDIJ:  cpu time    0.5529: real time    0.5536
     EDDAV:  cpu time   14.4998: real time   14.5540
       DOS:  cpu time    0.0020: real time    0.0018
    CHARGE:  cpu time    1.2728: real time    1.2765
    MIXING:  cpu time    0.0060: real time    0.0064
    --------------------------------------------
      LOOP:  cpu time   16.5975: real time   16.6797

 eigenvalue-minimisations  :  7248
 total energy-change (2. order) : 0.1533267E+00  (-0.1175655E+01)
 number of electron      76.0000000 magnetization       9.8046811
 augmentation part       -2.6837225 magnetization       7.6504687

 Broyden mixing:
  rms(total) = 0.95707E+00    rms(broyden)= 0.95706E+00
  rms(prec ) = 0.10584E+01
  weight for this iteration     100.00

 eigenvalues of (default mixing * dielectric matrix)
  average eigenvalue GAMMA=   1.3881
  2.1529  2.1529  0.6180  1.0083  1.0083

 Free energy of the ion-electron system (eV)
  ---------------------------------------------------
  alpha Z        PSCENC =       101.00659627
  Ewald energy   TEWEN  =     -3778.83224094
  -Hartree energ DENC   =     -2629.90967763
  -exchange      EXHF   =         0.00000000
  -V(xc)+E(xc)   XCENC  =        59.50422258
  PAW double counting   =      5890.99040229    -5720.58948864
  entropy T*S    EENTRO =        -0.02315170
  eigenvalues    EBANDS =      -404.64426837
  atomic energy  EATOM  =      6434.98193557
  Solvation  Ediel_sol  =         0.00000000
  ---------------------------------------------------
  free energy    TOTEN  =       -47.51567057 eV

  energy without entropy =      -47.49251887  energy(sigma->0) =      -47.50409472


--------------------------------------------------------------------------------------------------------




----------------------------------------- Iteration    1(  11)  ---------------------------------------


    POTLOK:  cpu time    0.2620: real time    0.2627
    SETDIJ:  cpu time    0.5499: real time    0.5525
     EDDAV:  cpu time   17.5723: real time   17.6329
       DOS:  cpu time    0.0010: real time    0.0018
    CHARGE:  cpu time    1.2748: real time    1.2786
    MIXING:  cpu time    0.0070: real time    0.0064
    --------------------------------------------
      LOOP:  cpu time   19.6720: real time   19.7573

 eigenvalue-minimisations  :  9312
 total energy-change (2. order) :-0.2373811E+00  (-0.1038217E+00)
 number of electron      76.0000000 magnetization      10.3938035
 augmentation part       -2.5216313 magnetization       8.3248646

 Broyden mixing:
  rms(total) = 0.78591E+00    rms(broyden)= 0.78591E+00
  rms(prec ) = 0.83122E+00
  weight for this iteration     100.00

 eigenvalues of (default mixing * dielectric matrix)
  average eigenvalue GAMMA=   1.5153
  3.5636  1.5246  1.5246  1.0643  0.6265  0.7883

 Free energy of the ion-electron system (eV)
  ---------------------------------------------------
  alpha Z        PSCENC =       101.00659627
  Ewald energy   TEWEN  =     -3778.83224094
  -Hartree energ DENC   =     -2623.71497476
  -exchange      EXHF   =         0.00000000
  -V(xc)+E(xc)   XCENC  =        60.09318254
  PAW double counting   =      5958.73548129    -5792.84328680
  entropy T*S    EENTRO =        -0.01892095
  eigenvalues    EBANDS =      -407.16082392
  atomic energy  EATOM  =      6434.98193557
  Solvation  Ediel_sol  =         0.00000000
  ---------------------------------------------------
  free energy    TOTEN  =       -47.75305169 eV

  energy without entropy =      -47.73413074  energy(sigma->0) =      -47.74359122


--------------------------------------------------------------------------------------------------------




----------------------------------------- Iteration    1(  12)  ---------------------------------------


    POTLOK:  cpu time    0.2620: real time    0.2624
    SETDIJ:  cpu time    0.5509: real time    0.5535
     EDDAV:  cpu time   15.9976: real time   16.0546
       DOS:  cpu time    0.0020: real time    0.0018
    CHARGE:  cpu time    1.2738: real time    1.2776
    MIXING:  cpu time    0.0060: real time    0.0065
    --------------------------------------------
      LOOP:  cpu time   18.0952: real time   18.1822

 eigenvalue-minimisations  :  8304
 total energy-change (2. order) :-0.5077405E+00  (-0.3407794E-01)
 number of electron      76.0000000 magnetization      11.3848484
 augmentation part       -2.3128506 magnetization       9.4841769

 Broyden mixing:
  rms(total) = 0.59324E+00    rms(broyden)= 0.59324E+00
  rms(prec ) = 0.60894E+00
  weight for this iteration     100.00

 eigenvalues of (default mixing * dielectric matrix)
  average eigenvalue GAMMA=   1.9389
  6.2608  1.9510  1.9510  0.6232  0.9751  0.9751  0.8362

 Free energy of the ion-electron system (eV)
  ---------------------------------------------------
  alpha Z        PSCENC =       101.00659627
  Ewald energy   TEWEN  =     -3778.83224094
  -Hartree energ DENC   =     -2617.96007188
  -exchange      EXHF   =         0.00000000
  -V(xc)+E(xc)   XCENC  =        60.89941196
  PAW double counting   =      6115.39275124    -5957.37744045
  entropy T*S    EENTRO =        -0.01507371
  eigenvalues    EBANDS =      -406.35666022
  atomic energy  EATOM  =      6434.98193557
  Solvation  Ediel_sol  =         0.00000000
  ---------------------------------------------------
  free energy    TOTEN  =       -48.26079216 eV

  energy without entropy =      -48.24571844  energy(sigma->0) =      -48.25325530


--------------------------------------------------------------------------------------------------------




----------------------------------------- Iteration    1(  13)  ---------------------------------------


    POTLOK:  cpu time    0.2620: real time    0.2627
    SETDIJ:  cpu time    0.5519: real time    0.5546
     EDDAV:  cpu time   15.4077: real time   15.4652
       DOS:  cpu time    0.0020: real time    0.0019
    CHARGE:  cpu time    1.2688: real time    1.2729
    MIXING:  cpu time    0.0070: real time    0.0067
    --------------------------------------------
      LOOP:  cpu time   17.5033: real time   17.5830

 eigenvalue-minimisations  :  7908
 total energy-change (2. order) :-0.6647623E+00  (-0.9129789E-01)
 number of electron      76.0000000 magnetization      11.6529332
 augmentation part       -2.1152397 magnetization       9.8870999

 Broyden mixing:
  rms(total) = 0.54894E+00    rms(broyden)= 0.54894E+00
  rms(prec ) = 0.56522E+00
  weight for this iteration     100.00

 eigenvalues of (default mixing * dielectric matrix)
  average eigenvalue GAMMA=   2.2565
  7.0234  3.8227  2.2507  1.3934  0.6234  1.0215  1.0215  0.8958

 Free energy of the ion-electron system (eV)
  ---------------------------------------------------
  alpha Z        PSCENC =       101.00659627
  Ewald energy   TEWEN  =     -3778.83224094
  -Hartree energ DENC   =     -2611.23464828
  -exchange      EXHF   =         0.00000000
  -V(xc)+E(xc)   XCENC  =        62.27072046
  PAW double counting   =      6418.68065187    -6273.91383759
  entropy T*S    EENTRO =        -0.01148973
  eigenvalues    EBANDS =      -401.87324209
  atomic energy  EATOM  =      6434.98193557
  Solvation  Ediel_sol  =         0.00000000
  ---------------------------------------------------
  free energy    TOTEN  =       -48.92555445 eV

  energy without entropy =      -48.91406473  energy(sigma->0) =      -48.91980959


--------------------------------------------------------------------------------------------------------




----------------------------------------- Iteration    1(  14)  ---------------------------------------


    POTLOK:  cpu time    0.2610: real time    0.2623
    SETDIJ:  cpu time    0.5539: real time    0.5545
     EDDAV:  cpu time   14.0999: real time   14.1471
       DOS:  cpu time    0.0010: real time    0.0018
    CHARGE:  cpu time    1.2728: real time    1.2767
    MIXING:  cpu time    0.0070: real time    0.0069
    --------------------------------------------
      LOOP:  cpu time   16.2005: real time   16.2745

 eigenvalue-minimisations  :  7032
 total energy-change (2. order) :-0.1737364E+01  (-0.3216516E+00)
 number of electron      76.0000000 magnetization      11.5341714
 augmentation part       -2.7948786 magnetization       9.1489534

 Broyden mixing:
  rms(total) = 0.34545E+00    rms(broyden)= 0.34544E+00
  rms(prec ) = 0.48836E+00
  weight for this iteration     100.00

 eigenvalues of (default mixing * dielectric matrix)
  average eigenvalue GAMMA=   2.2160
  6.0205  6.0205  1.8331  1.8331  1.0199  1.0199  0.6217  0.7878  0.7878

 Free energy of the ion-electron system (eV)
  ---------------------------------------------------
  alpha Z        PSCENC =       101.00659627
  Ewald energy   TEWEN  =     -3778.83224094
  -Hartree energ DENC   =     -2614.66294734
  -exchange      EXHF   =         0.00000000
  -V(xc)+E(xc)   XCENC  =        59.94532315
  PAW double counting   =      6667.38747297    -6527.44940549
  entropy T*S    EENTRO =        -0.02257297
  eigenvalues    EBANDS =      -393.01707922
  atomic energy  EATOM  =      6434.98193557
  Solvation  Ediel_sol  =         0.00000000
  ---------------------------------------------------
  free energy    TOTEN  =       -50.66291800 eV

  energy without entropy =      -50.64034503  energy(sigma->0) =      -50.65163151


--------------------------------------------------------------------------------------------------------




----------------------------------------- Iteration    1(  15)  ---------------------------------------


    POTLOK:  cpu time    0.2610: real time    0.2624
    SETDIJ:  cpu time    0.5539: real time    0.5550
     EDDAV:  cpu time   15.6056: real time   15.6608
       DOS:  cpu time    0.0020: real time    0.0018
    CHARGE:  cpu time    1.2748: real time    1.2779
    MIXING:  cpu time    0.0070: real time    0.0071
    --------------------------------------------
      LOOP:  cpu time   17.7083: real time   17.7896

 eigenvalue-minimisations  :  7998
 total energy-change (2. order) :-0.1413614E+00  (-0.4680774E-01)
 number of electron      76.0000000 magnetization      11.7271045
 augmentation part       -2.8177365 magnetization       9.3384031

 Broyden mixing:
  rms(total) = 0.30879E+00    rms(broyden)= 0.30879E+00
  rms(prec ) = 0.46318E+00
  weight for this iteration     100.00

 eigenvalues of (default mixing * dielectric matrix)
  average eigenvalue GAMMA=   2.1799
  6.0108  6.0108  2.1666  2.1666  1.1008  1.1008  0.6232  0.8431  0.8882  0.8882

 Free energy of the ion-electron system (eV)
  ---------------------------------------------------
  alpha Z        PSCENC =       101.00659627
  Ewald energy   TEWEN  =     -3778.83224094
  -Hartree energ DENC   =     -2611.37610476
  -exchange      EXHF   =         0.00000000
  -V(xc)+E(xc)   XCENC  =        58.94432780
  PAW double counting   =      6657.38423202    -6515.84020268
  entropy T*S    EENTRO =        -0.02111354
  eigenvalues    EBANDS =      -397.05170912
  atomic energy  EATOM  =      6434.98193557
  Solvation  Ediel_sol  =         0.00000000
  ---------------------------------------------------
  free energy    TOTEN  =       -50.80427937 eV

  energy without entropy =      -50.78316583  energy(sigma->0) =      -50.79372260


--------------------------------------------------------------------------------------------------------




----------------------------------------- Iteration    1(  16)  ---------------------------------------


    POTLOK:  cpu time    0.2610: real time    0.2626
    SETDIJ:  cpu time    0.5529: real time    0.5545
     EDDAV:  cpu time   15.6666: real time   15.7187
       DOS:  cpu time    0.0020: real time    0.0018
    CHARGE:  cpu time    1.2738: real time    1.2773
    MIXING:  cpu time    0.0080: real time    0.0074
    --------------------------------------------
      LOOP:  cpu time   17.7673: real time   17.8389

 eigenvalue-minimisations  :  8040
 total energy-change (2. order) : 0.1152531E+00  (-0.3447382E-01)
 number of electron      76.0000000 magnetization      11.9135891
 augmentation part       -2.4639943 magnetization       9.8265568

 Broyden mixing:
  rms(total) = 0.16199E+00    rms(broyden)= 0.16198E+00
  rms(prec ) = 0.18069E+00
  weight for this iteration     100.00

 eigenvalues of (default mixing * dielectric matrix)
  average eigenvalue GAMMA=   2.2282
  9.6385  3.2766  3.2766  1.5244  1.5244  0.6230  1.0125  1.0125  0.8581  0.8817
  0.8817

 Free energy of the ion-electron system (eV)
  ---------------------------------------------------
  alpha Z        PSCENC =       101.00659627
  Ewald energy   TEWEN  =     -3778.83224094
  -Hartree energ DENC   =     -2600.04955969
  -exchange      EXHF   =         0.00000000
  -V(xc)+E(xc)   XCENC  =        59.09549691
  PAW double counting   =      6672.19139319    -6532.07269769
  entropy T*S    EENTRO =        -0.01251043
  eigenvalues    EBANDS =      -406.99743951
  atomic energy  EATOM  =      6434.98193557
  Solvation  Ediel_sol  =         0.00000000
  ---------------------------------------------------
  free energy    TOTEN  =       -50.68902631 eV

  energy without entropy =      -50.67651588  energy(sigma->0) =      -50.68277109


--------------------------------------------------------------------------------------------------------




----------------------------------------- Iteration    1(  17)  ---------------------------------------


    POTLOK:  cpu time    0.2620: real time    0.2623
    SETDIJ:  cpu time    0.5529: real time    0.5547
     EDDAV:  cpu time   16.9324: real time   17.0034
       DOS:  cpu time    0.0010: real time    0.0018
    CHARGE:  cpu time    1.2738: real time    1.2765
    MIXING:  cpu time    0.0070: real time    0.0074
    --------------------------------------------
      LOOP:  cpu time   19.0341: real time   19.1297

 eigenvalue-minimisations  :  8868
 total energy-change (2. order) :-0.1886862E-01  (-0.7617346E-02)
 number of electron      76.0000000 magnetization      11.8701372
 augmentation part       -2.3457861 magnetization       9.8867619

 Broyden mixing:
  rms(total) = 0.71258E-01    rms(broyden)= 0.71256E-01
  rms(prec ) = 0.85972E-01
  weight for this iteration     100.00

 eigenvalues of (default mixing * dielectric matrix)
  average eigenvalue GAMMA=   2.1221
  9.2859  3.2965  3.2965  1.5399  1.5399  1.1539  1.1539  0.6230  0.8734  0.8734
  0.9142  0.9142

 Free energy of the ion-electron system (eV)
  ---------------------------------------------------
  alpha Z        PSCENC =       101.00659627
  Ewald energy   TEWEN  =     -3778.83224094
  -Hartree energ DENC   =     -2597.54145607
  -exchange      EXHF   =         0.00000000
  -V(xc)+E(xc)   XCENC  =        59.68803115
  PAW double counting   =      6710.29421910    -6572.14793772
  entropy T*S    EENTRO =        -0.01199894
  eigenvalues    EBANDS =      -408.14504336
  atomic energy  EATOM  =      6434.98193557
  Solvation  Ediel_sol  =         0.00000000
  ---------------------------------------------------
  free energy    TOTEN  =       -50.70789493 eV

  energy without entropy =      -50.69589599  energy(sigma->0) =      -50.70189546


--------------------------------------------------------------------------------------------------------




----------------------------------------- Iteration    1(  18)  ---------------------------------------


    POTLOK:  cpu time    0.2610: real time    0.2621
    SETDIJ:  cpu time    0.5519: real time    0.5538
     EDDAV:  cpu time   16.6845: real time   16.7484
       DOS:  cpu time    0.0020: real time    0.0018
    CHARGE:  cpu time    1.2758: real time    1.2790
    MIXING:  cpu time    0.0080: real time    0.0077
    --------------------------------------------
      LOOP:  cpu time   18.7871: real time   18.8745

 eigenvalue-minimisations  :  8718
 total energy-change (2. order) : 0.3435277E-03  (-0.1038599E-02)
 number of electron      76.0000000 magnetization      11.8891408
 augmentation part       -2.3966410 magnetization       9.8609185

 Broyden mixing:
  rms(total) = 0.61508E-01    rms(broyden)= 0.61507E-01
  rms(prec ) = 0.73413E-01
  weight for this iteration     100.00

 eigenvalues of (default mixing * dielectric matrix)
  average eigenvalue GAMMA=   2.1860
  8.4850  4.6103  3.3646  2.5148  1.3871  1.3871  0.6230  1.1899  1.1899  0.9811
  0.9811  0.8606  0.8432

 Free energy of the ion-electron system (eV)
  ---------------------------------------------------
  alpha Z        PSCENC =       101.00659627
  Ewald energy   TEWEN  =     -3778.83224094
  -Hartree energ DENC   =     -2598.23620296
  -exchange      EXHF   =         0.00000000
  -V(xc)+E(xc)   XCENC  =        59.55697371
  PAW double counting   =      6700.90173534    -6562.10737965
  entropy T*S    EENTRO =        -0.01296183
  eigenvalues    EBANDS =      -407.96600692
  atomic energy  EATOM  =      6434.98193557
  Solvation  Ediel_sol  =         0.00000000
  ---------------------------------------------------
  free energy    TOTEN  =       -50.70755140 eV

  energy without entropy =      -50.69458957  energy(sigma->0) =      -50.70107049


--------------------------------------------------------------------------------------------------------




----------------------------------------- Iteration    1(  19)  ---------------------------------------


    POTLOK:  cpu time    0.2610: real time    0.2617
    SETDIJ:  cpu time    0.5549: real time    0.5558
     EDDAV:  cpu time   14.4838: real time   14.5408
       DOS:  cpu time    0.0020: real time    0.0018
    CHARGE:  cpu time    1.2738: real time    1.2773
    MIXING:  cpu time    0.0080: real time    0.0079
    --------------------------------------------
      LOOP:  cpu time   16.5865: real time   16.6723

 eigenvalue-minimisations  :  7218
 total energy-change (2. order) : 0.4674051E-02  (-0.3288335E-02)
 number of electron      76.0000000 magnetization      11.9297731
 augmentation part       -2.3964304 magnetization       9.9160390

 Broyden mixing:
  rms(total) = 0.45278E-01    rms(broyden)= 0.45277E-01
  rms(prec ) = 0.48646E-01
  weight for this iteration     100.00

 eigenvalues of (default mixing * dielectric matrix)
  average eigenvalue GAMMA=   2.1517
  9.0724  4.5510  3.1233  2.9187  1.4792  1.4792  0.6230  1.1291  1.1291  0.9606
  0.9606  0.9410  0.9410  0.8148

 Free energy of the ion-electron system (eV)
  ---------------------------------------------------
  alpha Z        PSCENC =       101.00659627
  Ewald energy   TEWEN  =     -3778.83224094
  -Hartree energ DENC   =     -2595.61270757
  -exchange      EXHF   =         0.00000000
  -V(xc)+E(xc)   XCENC  =        59.31676378
  PAW double counting   =      6708.22937128    -6569.04676050
  entropy T*S    EENTRO =        -0.01399348
  eigenvalues    EBANDS =      -410.73184177
  atomic energy  EATOM  =      6434.98193557
  Solvation  Ediel_sol  =         0.00000000
  ---------------------------------------------------
  free energy    TOTEN  =       -50.70287735 eV

  energy without entropy =      -50.68888387  energy(sigma->0) =      -50.69588061


--------------------------------------------------------------------------------------------------------




----------------------------------------- Iteration    1(  20)  ---------------------------------------


    POTLOK:  cpu time    0.2610: real time    0.2623
    SETDIJ:  cpu time    0.5549: real time    0.5555
     EDDAV:  cpu time   16.7595: real time   16.8182
       DOS:  cpu time    0.0020: real time    0.0019
    CHARGE:  cpu time    1.2778: real time    1.2810
    MIXING:  cpu time    0.0080: real time    0.0081
    --------------------------------------------
      LOOP:  cpu time   18.8671: real time   18.9506

 eigenvalue-minimisations  :  8736
 total energy-change (2. order) :-0.1013435E-02  (-0.2465566E-03)
 number of electron      76.0000000 magnetization      11.9370008
 augmentation part       -2.4019018 magnetization       9.9228934

 Broyden mixing:
  rms(total) = 0.32761E-01    rms(broyden)= 0.32760E-01
  rms(prec ) = 0.36971E-01
  weight for this iteration     100.00

 eigenvalues of (default mixing * dielectric matrix)
  average eigenvalue GAMMA=   2.1441
  9.1602  4.1844  4.1844  2.1901  2.1901  1.2333  1.2333  1.3060  1.3060  0.6230
  0.9833  0.9833  0.9049  0.8397  0.8397

 Free energy of the ion-electron system (eV)
  ---------------------------------------------------
  alpha Z        PSCENC =       101.00659627
  Ewald energy   TEWEN  =     -3778.83224094
  -Hartree energ DENC   =     -2595.22514385
  -exchange      EXHF   =         0.00000000
  -V(xc)+E(xc)   XCENC  =        59.37212975
  PAW double counting   =      6719.96079473    -6581.12840293
  entropy T*S    EENTRO =        -0.01418272
  eigenvalues    EBANDS =      -410.82537668
  atomic energy  EATOM  =      6434.98193557
  Solvation  Ediel_sol  =         0.00000000
  ---------------------------------------------------
  free energy    TOTEN  =       -50.70389079 eV

  energy without entropy =      -50.68970807  energy(sigma->0) =      -50.69679943


--------------------------------------------------------------------------------------------------------




----------------------------------------- Iteration    1(  21)  ---------------------------------------


    POTLOK:  cpu time    0.2610: real time    0.2623
    SETDIJ:  cpu time    0.5529: real time    0.5548
     EDDAV:  cpu time   15.8126: real time   15.8653
       DOS:  cpu time    0.0020: real time    0.0019
    CHARGE:  cpu time    1.2718: real time    1.2747
    MIXING:  cpu time    0.0080: real time    0.0085
    --------------------------------------------
      LOOP:  cpu time   17.9113: real time   18.1643

 eigenvalue-minimisations  :  8046
 total energy-change (2. order) :-0.4062714E-03  (-0.5655551E-04)
 number of electron      76.0000000 magnetization      11.9718606
 augmentation part       -2.4079766 magnetization       9.9511393

 Broyden mixing:
  rms(total) = 0.32441E-01    rms(broyden)= 0.32441E-01
  rms(prec ) = 0.39581E-01
  weight for this iteration     100.00

 eigenvalues of (default mixing * dielectric matrix)
  average eigenvalue GAMMA=   2.2534
  9.6433  4.6205  4.6205  2.8042  2.8042  1.4254  1.4254  1.2202  1.2202  0.6230
  0.9999  0.9999  0.9683  0.9683  0.8554  0.8554

 Free energy of the ion-electron system (eV)
  ---------------------------------------------------
  alpha Z        PSCENC =       101.00659627
  Ewald energy   TEWEN  =     -3778.83224094
  -Hartree energ DENC   =     -2595.52606095
  -exchange      EXHF   =         0.00000000
  -V(xc)+E(xc)   XCENC  =        59.41886372
  PAW double counting   =      6718.46300893    -6579.62717590
  entropy T*S    EENTRO =        -0.01421301
  eigenvalues    EBANDS =      -410.57501074
  atomic energy  EATOM  =      6434.98193557
  Solvation  Ediel_sol  =         0.00000000
  ---------------------------------------------------
  free energy    TOTEN  =       -50.70429706 eV

  energy without entropy =      -50.69008405  energy(sigma->0) =      -50.69719055


--------------------------------------------------------------------------------------------------------




----------------------------------------- Iteration    1(  22)  ---------------------------------------


    POTLOK:  cpu time    0.2630: real time    0.2642
    SETDIJ:  cpu time    0.5519: real time    0.5550
     EDDAV:  cpu time   14.3188: real time   14.3909
       DOS:  cpu time    0.0020: real time    0.0018
    CHARGE:  cpu time    1.2648: real time    1.2700
    MIXING:  cpu time    0.0080: real time    0.0086
    --------------------------------------------
      LOOP:  cpu time   16.4125: real time   20.1332

 eigenvalue-minimisations  :  7104
 total energy-change (2. order) :-0.4765664E-03  (-0.1855839E-03)
 number of electron      76.0000000 magnetization      11.9806235
 augmentation part       -2.4089730 magnetization       9.9628406

 Broyden mixing:
  rms(total) = 0.28168E-01    rms(broyden)= 0.28168E-01
  rms(prec ) = 0.34748E-01
  weight for this iteration     100.00

 eigenvalues of (default mixing * dielectric matrix)
  average eigenvalue GAMMA=   2.2354
  9.6521  4.7416  4.7416  2.9709  2.9709  1.4257  1.4257  1.3994  1.3994  1.1034
  1.1034  0.6230  0.9650  0.9650  0.8855  0.8149  0.8149

 Free energy of the ion-electron system (eV)
  ---------------------------------------------------
  alpha Z        PSCENC =       101.00659627
  Ewald energy   TEWEN  =     -3778.83224094
  -Hartree energ DENC   =     -2594.72578073
  -exchange      EXHF   =         0.00000000
  -V(xc)+E(xc)   XCENC  =        59.38537961
  PAW double counting   =      6723.97452259    -6585.27339755
  entropy T*S    EENTRO =        -0.01405985
  eigenvalues    EBANDS =      -411.20772859
  atomic energy  EATOM  =      6434.98193557
  Solvation  Ediel_sol  =         0.00000000
  ---------------------------------------------------
  free energy    TOTEN  =       -50.70477363 eV

  energy without entropy =      -50.69071377  energy(sigma->0) =      -50.69774370


--------------------------------------------------------------------------------------------------------




----------------------------------------- Iteration    1(  23)  ---------------------------------------


    POTLOK:  cpu time    0.2610: real time    0.2621
    SETDIJ:  cpu time    0.5589: real time    0.5602
     EDDAV:  cpu time   14.8167: real time   14.8717
       DOS:  cpu time    0.0020: real time    0.0018
    CHARGE:  cpu time    1.2678: real time    1.2705
    MIXING:  cpu time    0.0090: real time    0.0088
    --------------------------------------------
      LOOP:  cpu time   16.9194: real time   17.0024

 eigenvalue-minimisations  :  7398
 total energy-change (2. order) : 0.3754281E-03  (-0.5515372E-04)
 number of electron      76.0000000 magnetization      11.9939871
 augmentation part       -2.3917047 magnetization       9.9914618

 Broyden mixing:
  rms(total) = 0.17034E-01    rms(broyden)= 0.17034E-01
  rms(prec ) = 0.18921E-01
  weight for this iteration     100.00

 eigenvalues of (default mixing * dielectric matrix)
  average eigenvalue GAMMA=   2.3940
 10.1846  5.8551  5.8551  3.3545  3.3545  1.7957  1.7957  1.2679  1.2679  1.1514
  1.1514  0.6230  0.9471  0.9471  0.9198  0.9198  0.8510  0.8510

 Free energy of the ion-electron system (eV)
  ---------------------------------------------------
  alpha Z        PSCENC =       101.00659627
  Ewald energy   TEWEN  =     -3778.83224094
  -Hartree energ DENC   =     -2594.21664626
  -exchange      EXHF   =         0.00000000
  -V(xc)+E(xc)   XCENC  =        59.36433634
  PAW double counting   =      6722.03248119    -6583.34132273
  entropy T*S    EENTRO =        -0.01373472
  eigenvalues    EBANDS =      -411.68580293
  atomic energy  EATOM  =      6434.98193557
  Solvation  Ediel_sol  =         0.00000000
  ---------------------------------------------------
  free energy    TOTEN  =       -50.70439820 eV

  energy without entropy =      -50.69066348  energy(sigma->0) =      -50.69753084


--------------------------------------------------------------------------------------------------------




----------------------------------------- Iteration    1(  24)  ---------------------------------------


    POTLOK:  cpu time    0.2620: real time    0.2623
    SETDIJ:  cpu time    0.5539: real time    0.5560
     EDDAV:  cpu time   13.0980: real time   13.1422
       DOS:  cpu time    0.0010: real time    0.0017
    --------------------------------------------
      LOOP:  cpu time   13.9189: real time   13.9865

 eigenvalue-minimisations  :  6228
 total energy-change (2. order) : 0.5178983E-04  (-0.2869488E-04)
 number of electron      76.0000000 magnetization      11.9939871
 augmentation part       -2.3917047 magnetization       9.9914618

 Free energy of the ion-electron system (eV)
  ---------------------------------------------------
  alpha Z        PSCENC =       101.00659627
  Ewald energy   TEWEN  =     -3778.83224094
  -Hartree energ DENC   =     -2593.92314242
  -exchange      EXHF   =         0.00000000
  -V(xc)+E(xc)   XCENC  =        59.36697315
  PAW double counting   =      6720.45834001    -6581.82076358
  entropy T*S    EENTRO =        -0.01360447
  eigenvalues    EBANDS =      -411.92843999
  atomic energy  EATOM  =      6434.98193557
  Solvation  Ediel_sol  =         0.00000000
  ---------------------------------------------------
  free energy    TOTEN  =       -50.70434641 eV

  energy without entropy =      -50.69074193  energy(sigma->0) =      -50.69754417


--------------------------------------------------------------------------------------------------------




 average (electrostatic) potential at core
  the test charge radii are     1.2976  1.1875
  (the norm of the test charge is              1.0000)
       1 -98.2703       2 -98.2703       3 -92.3342       4 -92.4124       5 -92.4124
       6 -92.4124       7 -92.4124       8 -92.3342
 
 
 
 E-fermi :   2.8701     XC(G=0):  -7.8529     alpha+bet : -8.9008


 spin component 1

 k-point     1 :       0.0000    0.0000    0.0000
  band No.  band energies     occupation 
      1     -45.6979      1.00000
      2     -45.6978      1.00000
      3     -17.2161      1.00000
      4     -17.2091      1.00000
      5     -17.1546      1.00000
      6     -17.1206      1.00000
      7     -17.0841      1.00000
      8     -17.0818      1.00000
      9      -9.5652      1.00000
     10      -8.9616      1.00000
     11      -8.9346      1.00000
     12      -8.9035      1.00000
     13      -8.6939      1.00000
     14      -8.6896      1.00000
     15      -0.9631      1.00000
     16      -0.5944      1.00000
     17      -0.3773      1.00000
     18       0.3204      1.00000
     19       0.3733      1.00000
     20       0.5754      1.00000
     21       0.7053      1.00000
     22       0.9096      1.00000
     23       1.0855      1.00000
     24       1.1615      1.00000
     25       1.1809      1.00000
     26       1.2150      1.00000
     27       1.6051      1.00000
     28       1.6553      1.00000
     29       1.8702      1.00000
     30       1.9275      1.00000
     31       1.9553      1.00000
     32       2.5065      1.00000
     33       2.5506      1.00000
     34       2.5660      1.00000
     35       2.5799      1.00000
     36       2.6147      1.00000
     37       2.6228      1.00000
     38       2.6349      1.00000
     39       2.6988      1.00000
     40       2.7180      0.99999
     41       2.8556      0.65942
     42       2.8633      0.57602
     43       2.8894      0.29318
     44       2.9768      0.00128
     45       3.0470      0.00000
     46       3.1478      0.00000
     47       5.0495      0.00000
     48       5.1202      0.00000
     49       5.7122      0.00000
     50       6.4048      0.00000
     51       6.4737      0.00000
     52       6.4933      0.00000
     53       6.8924      0.00000
     54       7.1646      0.00000

 k-point     2 :       0.1667    0.0000    0.0000
  band No.  band energies     occupation 
      1     -45.6974      1.00000
      2     -45.6974      1.00000
      3     -17.2051      1.00000
      4     -17.1991      1.00000
      5     -17.1457      1.00000
      6     -17.1285      1.00000
      7     -17.1267      1.00000
      8     -17.1163      1.00000
      9      -9.4404      1.00000
     10      -8.9498      1.00000
     11      -8.9003      1.00000
     12      -8.8425      1.00000
     13      -8.7114      1.00000
     14      -8.6834      1.00000
     15      -0.8880      1.00000
     16      -0.5084      1.00000
     17      -0.2321      1.00000
     18       0.0808      1.00000
     19       0.4629      1.00000
     20       0.4841      1.00000
     21       0.6267      1.00000
     22       0.7130      1.00000
     23       0.7920      1.00000
     24       1.1029      1.00000
     25       1.1273      1.00000
     26       1.2158      1.00000
     27       1.3541      1.00000
     28       1.4037      1.00000
     29       1.7645      1.00000
     30       1.9157      1.00000
     31       1.9477      1.00000
     32       2.2845      1.00000
     33       2.4929      1.00000
     34       2.5332      1.00000
     35       2.5352      1.00000
     36       2.5441      1.00000
[...]
  0.003  -0.000   0.006  -0.000   0.000  -0.004   0.000  -0.000
 -0.000  -0.000  -0.000   0.000   0.000   0.000  -0.000  -0.000
 -0.003   0.001   0.002   0.000  -0.000  -0.003  -0.000   0.000
  0.000   0.000  -0.000   0.004   0.000   0.000  -0.004  -0.000
 -0.000  -0.000  -0.000   0.000   0.002   0.000  -0.000  -0.002
  0.000   0.000  -0.000   0.008   0.000   0.000  -0.005  -0.000
  0.000   0.000  -0.000   0.000   0.008   0.000  -0.000  -0.005
 pseudopotential strength for first ion, spin component:           2
 56.154 -62.407  -0.003  -0.000   0.000  -0.000  -0.000   0.000
-62.407  46.511   0.005   0.000  -0.000  -0.002  -0.000   0.000
 -0.003   0.005  21.000  -0.000  -0.000  -9.389  -0.000  -0.000
 -0.000   0.000  -0.000  21.002   0.000  -0.000  -9.403   0.000
  0.000  -0.000  -0.000   0.000  20.999  -0.000   0.000  -9.401
 -0.000  -0.002  -9.389  -0.000  -0.000  16.314   0.000   0.000
 -0.000  -0.000  -0.000  -9.403   0.000   0.000  16.327  -0.000
  0.000   0.000  -0.000   0.000  -9.401   0.000  -0.000  16.324
 -0.000   0.000   0.000   0.000  -0.003   0.000   0.000  -0.001
 -0.000   0.000  -0.000  -0.001   0.000  -0.000  -0.000   0.000
 -0.001   0.003   0.001  -0.000  -0.000  -0.000  -0.000  -0.000
  0.000  -0.000   0.000   0.000  -0.000   0.000   0.000  -0.000
 -0.003   0.005  -0.001  -0.000   0.000  -0.001  -0.000   0.000
 -0.000   0.000   0.000   0.000  -0.004   0.000   0.000  -0.001
 -0.000   0.000  -0.000  -0.002   0.000  -0.000  -0.001   0.000
 -0.002   0.004   0.001  -0.000  -0.000  -0.001  -0.000  -0.000
  0.000  -0.000   0.000   0.000  -0.000   0.000   0.000  -0.000
 -0.004   0.008  -0.001  -0.000   0.000  -0.001  -0.000   0.000
  0.008  -0.000  -0.008  -0.000   0.000   0.008   0.000  -0.000
 -0.000  -0.000  -0.000   0.000   0.000   0.000  -0.000  -0.000
  0.000   0.001  -0.012   0.000  -0.000   0.008  -0.000   0.000
  0.000   0.000  -0.000   0.021   0.000   0.000  -0.020  -0.000
 -0.000  -0.000  -0.000   0.000   0.001   0.000  -0.000  -0.003
  0.000   0.000  -0.000   0.026   0.000   0.000  -0.020  -0.000
  0.000   0.000  -0.000   0.000   0.032   0.000  -0.000  -0.026
  0.008   0.000  -0.007  -0.000   0.000   0.007   0.000  -0.000
 -0.000  -0.000  -0.000   0.000   0.000   0.000  -0.000  -0.000
  0.000   0.001  -0.011   0.000  -0.000   0.007  -0.000   0.000
  0.000   0.000  -0.000   0.020   0.000   0.000  -0.018  -0.000
 -0.000  -0.000  -0.000   0.000   0.001   0.000  -0.000  -0.003
  0.000   0.000  -0.000   0.024   0.000   0.000  -0.019  -0.000
  0.000   0.000  -0.000   0.000   0.030   0.000  -0.000  -0.024
 total augmentation occupancy for first ion, spin component:           1
  2.020   0.187  -0.000   0.000   0.000   0.001  -0.000   0.000   0.000   0.000   0.014   0.000   0.006   0.000   0.000  -0.009
  0.187   0.475   0.008   0.000   0.000  -0.004  -0.000   0.000   0.000  -0.000  -0.140   0.000   0.063   0.000   0.000   0.077
 -0.000   0.008   2.012   0.000   0.000   0.081  -0.000   0.000   0.000   0.000  -0.047   0.000  -0.036   0.000   0.000   0.023
  0.000   0.000   0.000   2.010   0.000   0.000   0.084  -0.000   0.000  -0.030  -0.000   0.000  -0.000  -0.000   0.013  -0.000
  0.000  -0.000   0.000   0.000   2.014   0.000   0.000   0.079   0.019  -0.000   0.000   0.000   0.000  -0.011   0.000   0.000
  0.001  -0.004   0.081   0.000   0.000   0.015   0.000   0.000   0.000   0.000   0.034   0.000   0.022   0.000   0.000  -0.018
 -0.000  -0.000  -0.000   0.084   0.000   0.000   0.013  -0.000   0.000   0.027  -0.000   0.000  -0.000   0.000  -0.014   0.000
  0.000   0.000   0.000  -0.000   0.079   0.000  -0.000   0.016  -0.012   0.000   0.000   0.000   0.000   0.006   0.000   0.000
  0.000   0.000   0.000   0.000   0.019   0.000   0.000  -0.012   2.608   0.000   0.000   0.000  -0.000  -1.392   0.000   0.000
  0.000  -0.000   0.000  -0.030  -0.000   0.000   0.027   0.000   0.000   1.468   0.000   0.000   0.000   0.000  -0.771   0.000
  0.014  -0.140  -0.047  -0.000   0.000   0.034  -0.000   0.000   0.000   0.000   1.344  -0.000  -0.097   0.000   0.000  -0.711
  0.000   0.000   0.000   0.000   0.000   0.000   0.000   0.000   0.000   0.000  -0.000   1.720   0.000   0.000   0.000   0.000
  0.006   0.063  -0.036  -0.000   0.000   0.022  -0.000   0.000   0.000   0.000  -0.097   0.000   0.813   0.000   0.000   0.053
  0.000   0.000   0.000  -0.000  -0.011   0.000   0.000   0.006  -1.392   0.000   0.000   0.000   0.000   0.746   0.000   0.000
  0.000   0.000   0.000   0.013   0.000   0.000  -0.014   0.000   0.000  -0.771   0.000   0.000   0.000   0.000   0.407   0.000
 -0.009   0.077   0.023  -0.000   0.000  -0.018   0.000   0.000   0.000   0.000  -0.711   0.000   0.053   0.000   0.000   0.378
  0.000  -0.000   0.000   0.000   0.000   0.000   0.000  -0.000   0.000   0.000   0.000  -0.910   0.000   0.000   0.000  -0.000
 -0.007  -0.037   0.018   0.000   0.000  -0.012   0.000   0.000  -0.000   0.000   0.052   0.000  -0.428  -0.000   0.000  -0.029
  0.002  -0.012   0.033  -0.000   0.000  -0.031  -0.000   0.000   0.000   0.000  -0.176   0.000  -0.034   0.000  -0.000   0.089
  0.000   0.000   0.000   0.000   0.000   0.000   0.000   0.000  -0.000   0.000   0.000  -0.377   0.000   0.000   0.000   0.000
  0.004  -0.080   0.002  -0.000  -0.000   0.004   0.000  -0.000   0.000   0.000   0.256   0.000  -0.017  -0.000   0.000  -0.132
  0.000   0.000   0.000  -0.007  -0.000  -0.000   0.010   0.000  -0.000   0.237  -0.000  -0.000   0.000  -0.000  -0.120   0.000
  0.000   0.000  -0.000  -0.000  -0.004   0.000   0.000   0.006  -0.380   0.000   0.000  -0.000   0.000   0.195   0.000   0.000
  0.000   0.000  -0.000   0.007   0.000   0.000  -0.004   0.000   0.000  -0.131   0.000   0.000   0.000   0.000   0.066   0.000
  0.000   0.000   0.000   0.000  -0.011   0.000   0.000   0.018  -0.262   0.000  -0.000  -0.000   0.000   0.136   0.000   0.000
 -0.002   0.009  -0.041  -0.000   0.000   0.034   0.000   0.000  -0.000  -0.000   0.187   0.000   0.030   0.000   0.000  -0.101
 -0.000   0.000   0.000   0.000  -0.000   0.000   0.000   0.000   0.000   0.000   0.000   0.517   0.000  -0.000   0.000   0.000
 -0.005   0.087   0.001   0.000   0.000  -0.005   0.000   0.000   0.000   0.000  -0.326   0.000  -0.013   0.000   0.000   0.175
  0.000   0.000  -0.000   0.008   0.000   0.000  -0.011   0.000   0.000  -0.274  -0.000   0.000   0.000  -0.000   0.147   0.000
  0.000   0.000   0.000  -0.000   0.005   0.000   0.000  -0.007   0.408   0.000   0.000   0.000   0.000  -0.223   0.000   0.000
  0.000   0.000   0.000  -0.011  -0.000   0.000   0.005   0.000   0.000   0.146   0.000   0.000   0.000   0.000  -0.079   0.000
  0.000   0.000   0.000   0.000   0.020   0.000   0.000  -0.024   0.301   0.000   0.000   0.000   0.000  -0.164   0.000   0.000
 total augmentation occupancy for first ion, spin component:           2
 -0.003  -0.066   0.000   0.000   0.000  -0.000   0.000   0.000   0.000   0.000  -0.002   0.000  -0.003   0.000   0.000   0.002
 -0.066   0.096   0.000   0.000   0.000  -0.000   0.000   0.000   0.000   0.000  -0.005   0.000  -0.005   0.000  -0.000   0.001
  0.000   0.000   0.004  -0.000   0.000  -0.025  -0.000   0.000   0.000   0.000  -0.002   0.000  -0.000   0.000  -0.000   0.000
  0.000   0.000  -0.000   0.004   0.000  -0.000  -0.025   0.000  -0.000  -0.002  -0.000   0.000   0.000   0.000   0.001  -0.000
  0.000   0.000   0.000   0.000   0.004   0.000   0.000  -0.026  -0.002   0.000   0.000   0.000   0.000   0.002   0.000   0.000
 -0.000  -0.000  -0.025  -0.000   0.000  -0.001  -0.000   0.000   0.000   0.000   0.003  -0.000   0.002   0.000   0.000  -0.001
  0.000   0.000  -0.000  -0.025   0.000  -0.000  -0.001   0.000  -0.000   0.002  -0.000   0.000   0.000   0.000  -0.000   0.000
  0.000   0.000   0.000   0.000  -0.026   0.000   0.000  -0.001  -0.000   0.000   0.000  -0.000   0.000  -0.000   0.000   0.000
  0.000   0.000   0.000  -0.000  -0.002   0.000  -0.000  -0.000   0.039   0.000   0.000   0.000   0.000   0.032   0.000   0.000
  0.000   0.000   0.000  -0.002   0.000   0.000   0.002   0.000   0.000   0.043   0.000   0.000  -0.000   0.000   0.009   0.000
 -0.002  -0.005  -0.002  -0.000   0.000   0.003  -0.000   0.000   0.000   0.000   0.034   0.000  -0.011   0.000   0.000   0.011
  0.000   0.000   0.000   0.000   0.000  -0.000   0.000  -0.000   0.000   0.000   0.000   0.009   0.000   0.000   0.000  -0.000
 -0.003  -0.005  -0.000   0.000   0.000   0.002   0.000   0.000   0.000  -0.000  -0.011   0.000   0.068   0.000  -0.000   0.004
  0.000   0.000   0.000   0.000   0.002   0.000   0.000  -0.000   0.032   0.000   0.000   0.000   0.000  -0.044   0.000   0.000
  0.000  -0.000  -0.000   0.001   0.000   0.000  -0.000   0.000   0.000   0.009   0.000   0.000  -0.000   0.000  -0.021   0.000
  0.002   0.001   0.000  -0.000   0.000  -0.001   0.000   0.000   0.000   0.000   0.011  -0.000   0.004   0.000   0.000  -0.020
  0.000   0.000   0.000   0.000   0.000   0.000   0.000   0.000   0.000   0.000   0.000   0.031   0.000   0.000   0.000  -0.000
  0.003   0.003  -0.000   0.000   0.000  -0.001   0.000   0.000   0.000   0.000   0.004   0.000  -0.018   0.000   0.000  -0.001
 -0.000  -0.006   0.009  -0.000   0.000  -0.005   0.000   0.000   0.000   0.000  -0.025   0.000  -0.008   0.000   0.000   0.006
  0.000   0.000   0.000   0.000   0.000   0.000   0.000   0.000   0.000   0.000  -0.000   0.024   0.000   0.000   0.000  -0.000
  0.001  -0.013   0.002   0.000   0.000   0.000   0.000  -0.000   0.000   0.000  -0.001   0.000  -0.015   0.000   0.000   0.009
  0.000   0.000  -0.000  -0.003  -0.000   0.000   0.002  -0.000   0.000   0.015   0.000  -0.000   0.000   0.000   0.001   0.000
  0.000   0.000   0.000  -0.000  -0.001   0.000   0.000   0.001  -0.042   0.000   0.000   0.000   0.000   0.009   0.000   0.000
  0.000   0.000   0.000   0.001   0.000   0.000  -0.000   0.000   0.000  -0.013   0.000   0.000   0.000   0.000   0.002   0.000
  0.000   0.000   0.000   0.000   0.002   0.000   0.000  -0.001  -0.017   0.000   0.000  -0.000   0.000   0.000   0.000   0.000
  0.001   0.002  -0.001  -0.000   0.000  -0.002   0.000   0.000   0.000   0.000  -0.028  -0.000  -0.009   0.000   0.000   0.017
  0.000  -0.000   0.000   0.000   0.000   0.000   0.000   0.000   0.000   0.000  -0.000  -0.053   0.000  -0.000   0.000   0.000
 -0.000  -0.004  -0.003   0.000   0.000  -0.000   0.000   0.000   0.000   0.000   0.041   0.000  -0.018   0.000   0.000  -0.026
  0.000   0.000   0.000   0.002   0.000   0.000   0.001  -0.000   0.000   0.042   0.000   0.000  -0.000   0.000  -0.025  -0.000
  0.000   0.000   0.000  -0.000  -0.000   0.000   0.000   0.000  -0.062   0.000   0.000  -0.000   0.000   0.036   0.000   0.000
 -0.000   0.000   0.000   0.002   0.000   0.000  -0.000   0.000   0.000  -0.023   0.000   0.000   0.000   0.000   0.013  -0.000
 -0.000  -0.000   0.000   0.000   0.000   0.000   0.000   0.001  -0.040  -0.000   0.000   0.000   0.000   0.024   0.000   0.000


------------------------ aborting loop because EDIFF is reached ----------------------------------------


 


 total charge     
 
# of ion     s       p       d       f       tot
------------------------------------------------
  1        2.142   5.913   0.581   6.356  14.992
  2        2.142   5.913   0.581   6.356  14.992
  3        1.510   2.791   0.013   0.000   4.314
  4        1.510   2.782   0.015   0.000   4.307
  5        1.510   2.782   0.015   0.000   4.307
  6        1.510   2.782   0.015   0.000   4.307
  7        1.510   2.782   0.015   0.000   4.307
  8        1.510   2.791   0.013   0.000   4.314
------------------------------------------------
tot       13.343  28.536   1.247  12.712  55.839

 


 magnetization (x)
 
# of ion     s       p       d       f       tot
------------------------------------------------
  1        0.028   0.011   0.100   6.171   6.310
  2        0.028   0.011   0.100   6.171   6.310
  3       -0.004  -0.117   0.003   0.000  -0.118
  4       -0.003  -0.102   0.003   0.000  -0.102
  5       -0.003  -0.102   0.003   0.000  -0.102
  6       -0.003  -0.102   0.003   0.000  -0.102
  7       -0.003  -0.102   0.003   0.000  -0.102
  8       -0.004  -0.117   0.003   0.000  -0.118
------------------------------------------------
tot        0.036  -0.620   0.216  12.342  11.975

 
    CHARGE:  cpu time    1.2648: real time    1.2678
    FORLOC:  cpu time    0.0080: real time    0.0085
    FORNL :  cpu time    5.0082: real time    5.0207
    STRESS:  cpu time   12.5831: real time   12.6382
    FORCOR:  cpu time    0.2590: real time    0.2599
    FORHAR:  cpu time    0.0350: real time    0.0357
    MIXING:  cpu time    0.0100: real time    0.0095
    OFIELD:  cpu time    0.0000: real time    0.0005

  FORCE on cell =-STRESS in cart. coord.  units (eV):
  Direction    XX          YY          ZZ          XY          YZ          ZX
  --------------------------------------------------------------------------------------
  Alpha Z   101.00660   101.00660   101.00660
  Ewald    -167.00886 -2988.18524  -623.64386    -0.00000    -0.00000    -0.00000
  Hartree  1732.92001  -558.93626  1419.70672     0.00000    -0.00000    -0.00000
  E(xc)    -329.32759  -330.21473  -329.32552     0.00000    -0.00000     0.00000
  Local   -3436.71455  1671.38869 -2665.06793     0.00000     0.00000    -0.00000
  n-local  1164.32447  1166.29424  1161.86694     0.30534    -0.00000    -0.00001
  augment    44.83881    41.85176    46.07120     0.00000     0.00000     0.00000
  Kinetic   889.00849   896.63551   888.56374     0.18941    -0.00001     0.00000
  Fock        0.00000     0.00000     0.00000     0.00000     0.00000     0.00000
  -------------------------------------------------------------------------------------
  Total      -0.95263    -0.15944    -0.82211     0.00000     0.00000     0.00000
  in kB      -4.29411    -0.71868    -3.70579     0.00000     0.00000     0.00000
  external pressure =       -2.91 kB  Pullay stress =        0.00 kB


 VOLUME and BASIS-vectors are now :
 -----------------------------------------------------------------------------
  energy-cutoff  :      520.00
  volume of cell :      355.44
      direct lattice vectors                 reciprocal lattice vectors
     2.141262890 -8.203572522  0.000000000     0.233507059 -0.060949056  0.000000000
     2.141262890  8.203572522  0.000000000     0.233507059  0.060949056  0.000000000
     0.000000000  0.000000000 10.117160384     0.000000000  0.000000000  0.098841964

  length of vectors
     8.478420188  8.478420188 10.117160384     0.241330342  0.241330342  0.098841964


 FORCES acting on ions
    electron-ion (+dipol)            ewald-force                    non-local-force                 convergence-correction
 -----------------------------------------------------------------------------------------------
   -.303E-10 -.148E+02 0.127E-10   0.856E-14 0.153E+02 0.824E-12   0.000E+00 -.577E+00 0.000E+00   0.436E-13 0.704E-01 0.221E-12
   -.350E-10 0.148E+02 0.196E-10   -.191E-13 -.153E+02 -.790E-12   0.000E+00 0.577E+00 0.424E-21   -.570E-13 -.704E-01 -.666E-12
   -.105E-11 -.262E+03 0.721E-12   0.134E-13 0.264E+03 -.310E-12   0.000E+00 -.191E+01 -.424E-21   0.828E-14 0.293E-02 -.156E-12
   0.268E-07 0.220E+03 -.264E+02   0.198E-13 -.222E+03 0.268E+02   0.000E+00 0.209E+01 -.307E+00   0.319E-11 -.326E-03 -.907E-02
   -.268E-07 0.220E+03 0.264E+02   -.251E-14 -.222E+03 -.268E+02   0.000E+00 0.209E+01 0.307E+00   -.323E-11 -.326E-03 0.907E-02
   0.268E-07 -.220E+03 -.264E+02   0.710E-16 0.222E+03 0.268E+02   0.000E+00 -.209E+01 -.307E+00   0.323E-11 0.326E-03 -.907E-02
   -.268E-07 -.220E+03 0.264E+02   0.290E-14 0.222E+03 -.268E+02   0.000E+00 -.209E+01 0.307E+00   -.318E-11 0.326E-03 0.907E-02
   0.125E-11 0.262E+03 -.105E-11   -.774E-14 -.264E+03 0.281E-12   0.000E+00 0.191E+01 0.424E-21   0.788E-15 -.293E-02 0.770E-13
 -----------------------------------------------------------------------------------------------
   -.670E-10 -.168E-10 0.561E-10   0.155E-13 -.568E-13 -.142E-13   0.000E+00 0.222E-15 0.424E-21   0.612E-14 0.781E-13 -.483E-12
 
 
 POSITION                                       TOTAL-FORCE (eV/Angst)
 -----------------------------------------------------------------------------------
      2.14126      3.98755      2.52929         0.000000      0.013737     -0.000000
      2.14126     -3.98755      7.58787         0.000000     -0.013737      0.000000
      2.14126      6.48571      7.58787         0.000000     -0.008656      0.000000
      2.14126      2.61192      9.42206         0.000000     -0.010299      0.009640
      2.14126      2.61192      5.75368         0.000000     -0.010299     -0.009640
      2.14126     -2.61192      4.36348         0.000000      0.010299      0.009640
      2.14126     -2.61192      0.69510         0.000000      0.010299     -0.009640
      2.14126     -6.48571      2.52929         0.000000      0.008656      0.000000
 -----------------------------------------------------------------------------------
    total drift:                               -0.000000     -0.000000      0.000000


--------------------------------------------------------------------------------------------------------



  FREE ENERGIE OF THE ION-ELECTRON SYSTEM (eV)
  ---------------------------------------------------
  free  energy   TOTEN  =       -50.70434641 eV

  energy  without entropy=      -50.69074193  energy(sigma->0) =      -50.69754417
 


--------------------------------------------------------------------------------------------------------


    POTLOK:  cpu time    0.8229: real time    0.8252


--------------------------------------------------------------------------------------------------------


     LOOP+:  cpu time  446.0182: real time  452.7395
    4ORBIT:  cpu time    0.0000: real time    0.0001
 


 total charge     
 
# of ion     s       p       d       f       tot
------------------------------------------------
  1        2.142   5.913   0.581   6.356  14.992
  2        2.142   5.913   0.581   6.356  14.992
  3        1.510   2.791   0.013   0.000   4.314
  4        1.510   2.782   0.015   0.000   4.307
  5        1.510   2.782   0.015   0.000   4.307
  6        1.510   2.782   0.015   0.000   4.307
  7        1.510   2.782   0.015   0.000   4.307
  8        1.510   2.791   0.013   0.000   4.314
------------------------------------------------
tot       13.343  28.536   1.247  12.712  55.839

 


 magnetization (x)
 
# of ion     s       p       d       f       tot
------------------------------------------------
  1        0.028   0.011   0.100   6.171   6.310
  2        0.028   0.011   0.100   6.171   6.310
  3       -0.004  -0.117   0.003   0.000  -0.118
  4       -0.003  -0.102   0.003   0.000  -0.102
  5       -0.003  -0.102   0.003   0.000  -0.102
  6       -0.003  -0.102   0.003   0.000  -0.102
  7       -0.003  -0.102   0.003   0.000  -0.102
  8       -0.004  -0.117   0.003   0.000  -0.118
------------------------------------------------
tot        0.036  -0.620   0.216  12.342  11.975

 

 total amount of memory used by VASP on root node   116490. kBytes
========================================================================

   base      :      30000. kBytes
   nonl-proj :      32417. kBytes
   fftplans  :      18942. kBytes
   grid      :      16515. kBytes
   one-center:        196. kBytes
   wavefun   :      18420. kBytes
 
  
  
 General timing and accounting informations for this job:
 ========================================================
  
                  Total CPU time used (sec):      520.965
                            User time (sec):      414.832
                          System time (sec):      106.133
                         Elapsed time (sec):      529.080
  
                   Maximum memory used (kb):      232532.
                   Average memory used (kb):           0.
  
                          Minor page faults:     14205124
                          Major page faults:            1
                 Voluntary context switches:         2739
