 vasp.5.4.4.18Apr17-6-g9f103f2a35 (build Jan 10 2024 09:48:00) complex          
  
 executed on             LinuxIFC date 2024.04.25  15:09:33
 running on   64 total cores
 distrk:  each k-point on   64 cores,    1 groups
 distr:  one band on NCORES_PER_BAND=   8 cores,    8 groups


--------------------------------------------------------------------------------------------------------


 INCAR:
 POTCAR:    PAW_PBE Fe 06Sep2000                  
 POTCAR:    PAW_PBE Si 05Jan2001                  
 POTCAR:    PAW_PBE Fe 06Sep2000                  
   VRHFIN =Fe:  d7 s1                                                           
   LEXCH  = PE                                                                  
   EATOM  =   594.3153 eV,   43.6809 Ry                                         
                                                                                
   TITEL  = PAW_PBE Fe 06Sep2000                                                
   LULTRA =        F    use ultrasoft PP ?                                      
   IUNSCR =        1    unscreen: 0-lin 1-nonlin 2-no                           
   RPACOR =    2.000    partial core radius                                     
   POMASS =   55.847; ZVAL   =    8.000    mass and valenz                      
   RCORE  =    2.300    outmost cutoff radius                                   
   RWIGS  =    2.460; RWIGS  =    1.302    wigner-seitz radius (au A)           
   ENMAX  =  267.882; ENMIN  =  200.911 eV                                      
   RCLOC  =    1.701    cutoff for local pot                                    
   LCOR   =        T    correct aug charges                                     
   LPAW   =        T    paw PP                                                  
   EAUG   =  511.368                                                            
   DEXC   =    0.000                                                            
   RMAX   =    2.356    core radius for proj-oper                               
   RAUG   =    1.300    factor for augmentation sphere                          
   RDEP   =    2.442    radius for radial grids                                 
   RDEPT  =    1.890    core radius for aug-charge                              
                                                                                
   Atomic configuration                                                         
    9 entries                                                                   
     n  l   j            E        occ.                                          
     1  0  0.50     -6993.8440   2.0000                                         
     2  0  0.50      -814.6047   2.0000                                         
     2  1  1.50      -693.3689   6.0000                                         
     3  0  0.50       -89.4732   2.0000                                         
     3  1  1.50       -55.6373   6.0000                                         
     3  2  2.50        -3.8151   7.0000                                         
     4  0  0.50        -4.2551   1.0000                                         
     4  1  1.50        -3.4015   0.0000                                         
     4  3  2.50        -1.3606   0.0000                                         
   Description                                                                  
     l       E           TYP  RCUT    TYP  RCUT                                 
     2     -3.8151135     23  2.300                                             
     2     -5.1756961     23  2.300                                             
     0     -4.2550963     23  2.300                                             
     0      7.2035603     23  2.300                                             
     1     -2.7211652     23  2.300                                             
     1     18.4316424     23  2.300                                             
  local pseudopotential read in
  partial core-charges read in
  partial kinetic energy density read in
  atomic valenz-charges read in
  non local Contribution for L=           2  read in
    real space projection operators read in
  non local Contribution for L=           2  read in
    real space projection operators read in
  non local Contribution for L=           0  read in
    real space projection operators read in
  non local Contribution for L=           0  read in
    real space projection operators read in
  non local Contribution for L=           1  read in
    real space projection operators read in
  non local Contribution for L=           1  read in
    real space projection operators read in
    PAW grid and wavefunctions read in
 
   number of l-projection  operators is LMAX  =           6
   number of lm-projection operators is LMMAX =          18
 
 POTCAR:    PAW_PBE Si 05Jan2001                  
   VRHFIN =Si: s2p2                                                             
   LEXCH  = PE                                                                  
   EATOM  =   103.0669 eV,    7.5752 Ry                                         
                                                                                
   TITEL  = PAW_PBE Si 05Jan2001                                                
   LULTRA =        F    use ultrasoft PP ?                                      
   IUNSCR =        1    unscreen: 0-lin 1-nonlin 2-no                           
   RPACOR =    1.500    partial core radius                                     
   POMASS =   28.085; ZVAL   =    4.000    mass and valenz                      
   RCORE  =    1.900    outmost cutoff radius                                   
   RWIGS  =    2.480; RWIGS  =    1.312    wigner-seitz radius (au A)           
   ENMAX  =  245.345; ENMIN  =  184.009 eV                                      
   ICORE  =        2    local potential                                         
   LCOR   =        T    correct aug charges                                     
   LPAW   =        T    paw PP                                                  
   EAUG   =  322.069                                                            
   DEXC   =    0.000                                                            
   RMAX   =    1.950    core radius for proj-oper                               
   RAUG   =    1.300    factor for augmentation sphere                          
   RDEP   =    1.993    radius for radial grids                                 
   RDEPT  =    1.837    core radius for aug-charge                              
                                                                                
   Atomic configuration                                                         
    6 entries                                                                   
     n  l   j            E        occ.                                          
     1  0  0.50     -1785.8828   2.0000                                         
     2  0  0.50      -139.4969   2.0000                                         
     2  1  1.50       -95.5546   6.0000                                         
     3  0  0.50       -10.8127   2.0000                                         
     3  1  0.50        -4.0811   2.0000                                         
     3  2  1.50        -4.0817   0.0000                                         
   Description                                                                  
     l       E           TYP  RCUT    TYP  RCUT                                 
     0    -10.8127223     23  1.900                                             
     0     -7.6451159     23  1.900                                             
     1     -4.0811372     23  1.900                                             
     1      2.4879257     23  1.900                                             
     2     -4.0817478      7  1.900                                             
  local pseudopotential read in
  partial core-charges read in
  partial kinetic energy density read in
  atomic valenz-charges read in
  non local Contribution for L=           0  read in
    real space projection operators read in
  non local Contribution for L=           0  read in
    real space projection operators read in
  non local Contribution for L=           1  read in
    real space projection operators read in
  non local Contribution for L=           1  read in
    real space projection operators read in
    PAW grid and wavefunctions read in
 
   number of l-projection  operators is LMAX  =           4
   number of lm-projection operators is LMMAX =           8
 
  PAW_PBE Fe 06Sep2000                  :
 energy of atom  1       EATOM= -594.3153
 kinetic energy error for atom=    0.0026 (will be added to EATOM!!)
  PAW_PBE Si 05Jan2001                  :
 energy of atom  2       EATOM= -103.0669
 kinetic energy error for atom=    0.0005 (will be added to EATOM!!)
 
 
 POSCAR: Fe10 Si6                                
  positions in direct lattice
  velocities in cartesian coordinates
 exchange correlation table for  LEXCH =        8
   RHO(1)=    0.500       N(1)  =     2000
   RHO(2)=  100.500       N(2)  =     4000
 


--------------------------------------------------------------------------------------------------------


 ion  position               nearest neighbor table
   1  0.000  0.233  0.750-  14 2.42  15 2.42  12 2.52  11 2.66  11 2.66  10 2.79   3 2.79   9 2.88
                             9 2.88   4 2.88   4 2.88   8 2.97   7 2.97   6 2.97   5 2.97
   2  0.000  0.767  0.250-  13 2.42  16 2.42  11 2.52  12 2.66  12 2.66   9 2.79   4 2.79  10 2.88
                            10 2.88   3 2.88   3 2.88   6 2.97   5 2.97   8 2.97   7 2.97
   3  0.233  0.000  0.750-  12 2.42  14 2.42  15 2.52  13 2.66  13 2.66  10 2.79   1 2.79   2 2.88
                             2 2.88   4 2.88   4 2.88   5 2.97   6 2.97   7 2.97   8 2.97
   4  0.233  0.233  0.250-  11 2.42  13 2.42  16 2.52  14 2.66  14 2.66   2 2.79   9 2.79   1 2.88
                             1 2.88   3 2.88   3 2.88   5 2.97   6 2.97   7 2.97   8 2.97
   5  0.333  0.667  0.000-   6 2.39   6 2.39  13 2.42  12 2.42  15 2.42  11 2.42  16 2.42  14 2.42
                             3 2.97   2 2.97   1 2.97   9 2.97   4 2.97  10 2.97
   6  0.333  0.667  0.500-   5 2.39   5 2.39  13 2.42  12 2.42  15 2.42  11 2.42  16 2.42  14 2.42
                             3 2.97   2 2.97   1 2.97   9 2.97   4 2.97  10 2.97
   7  0.667  0.333  0.000-   8 2.39   8 2.39  15 2.42  11 2.42  12 2.42  13 2.42  16 2.42  14 2.42
                             1 2.97   9 2.97   3 2.97   2 2.97   4 2.97  10 2.97
   8  0.667  0.333  0.500-   7 2.39   7 2.39  15 2.42  11 2.42  12 2.42  13 2.42  16 2.42  14 2.42
                             1 2.97   9 2.97   3 2.97   2 2.97   4 2.97  10 2.97
   9  0.767  0.000  0.250-  11 2.42  16 2.42  13 2.52  15 2.66  15 2.66   2 2.79   4 2.79  10 2.88
                            10 2.88   1 2.88   1 2.88   7 2.97   8 2.97   5 2.97   6 2.97
  10  0.767  0.767  0.750-  12 2.42  15 2.42  14 2.52  16 2.66  16 2.66   1 2.79   3 2.79   9 2.88
                             2 2.88   9 2.88   2 2.88   5 2.97   6 2.97   7 2.97   8 2.97
  11  0.000  0.402  0.250-   9 2.42   4 2.42   8 2.42   7 2.42   6 2.42   5 2.42   2 2.52   1 2.66
                             1 2.66  12 2.74  12 2.74
  12  0.000  0.598  0.750-  10 2.42   3 2.42   6 2.42   5 2.42   8 2.42   7 2.42   1 2.52   2 2.66
                             2 2.66  11 2.74  11 2.74
  13  0.402  0.000  0.250-   2 2.42   4 2.42   5 2.42   6 2.42   7 2.42   8 2.42   9 2.52   3 2.66
                             3 2.66  15 2.74  15 2.74
  14  0.402  0.402  0.750-   1 2.42   3 2.42   5 2.42   6 2.42   7 2.42   8 2.42  10 2.52   4 2.66
                             4 2.66  16 2.74  16 2.74
  15  0.598  0.000  0.750-  10 2.42   1 2.42   8 2.42   7 2.42   6 2.42   5 2.42   3 2.52   9 2.66
                             9 2.66  13 2.74  13 2.74
  16  0.598  0.598  0.250-   2 2.42   9 2.42   6 2.42   7 2.42   8 2.42   5 2.42   4 2.52  10 2.66
                            10 2.66  14 2.74  14 2.74
 
  LATTYP: Found a hexagonal cell.
 ALAT       =     6.9104210358
 C/A-ratio  =     0.6905342737
  
  Lattice vectors:
  
 A1 = (   6.9104210358,   0.0000000000,   0.0000000000)
 A2 = (  -3.4552105179,   5.9846001679,   0.0000000000)
 A3 = (   0.0000000000,   0.0000000000,   4.7718825707)


Analysis of symmetry for initial positions (statically):
=====================================================================
 Subroutine PRICEL returns:
 Original cell was already a primitive cell.
 

 Routine SETGRP: Setting up the symmetry group for a 
 hexagonal supercell.


 Subroutine GETGRP returns: Found 24 space group operations
 (whereof 12 operations were pure point group operations)
 out of a pool of 24 trial point group operations.


The static configuration has the point symmetry D_3d.
 The point group associated with its full space group is D_6h.


Analysis of symmetry for dynamics (positions and initial velocities):
=====================================================================
 Subroutine PRICEL returns:
 Original cell was already a primitive cell.
 

 Routine SETGRP: Setting up the symmetry group for a 
 hexagonal supercell.


 Subroutine GETGRP returns: Found 24 space group operations
 (whereof 12 operations were pure point group operations)
 out of a pool of 24 trial point group operations.


The dynamic configuration has the point symmetry D_3d.
 The point group associated with its full space group is D_6h.


Analysis of structural, dynamic, and magnetic symmetry:
=====================================================================
 Subroutine PRICEL returns:
 Original cell was already a primitive cell.
 

 Routine SETGRP: Setting up the symmetry group for a 
 hexagonal supercell.


 Subroutine GETGRP returns: Found 24 space group operations
 (whereof 12 operations were pure point group operations)
 out of a pool of 24 trial point group operations.


The magnetic configuration has the point symmetry D_3d.
 The point group associated with its full space group is D_6h.


 Subroutine INISYM returns: Found 24 space group operations
 (whereof 12 operations are pure point group operations),
 and found     1 'primitive' translations

 
 
 KPOINTS: 0.040   4   4   5   12  0.040  118    9 
  k-points in reciprocal lattice
Space group operators:
 irot       det(A)        alpha          n_x          n_y          n_z        tau_x        tau_y        tau_z
    1     1.000000     0.000000     1.000000     0.000000     0.000000     0.000000     0.000000     0.000000
    2    -1.000000     0.000000     1.000000     0.000000     0.000000     0.000000     0.000000     0.000000
    3     1.000000   120.000000     0.000000     0.000000    -1.000000     0.000000     0.000000     0.000000
    4    -1.000000   120.000000     0.000000     0.000000    -1.000000     0.000000     0.000000     0.000000
    5     1.000000   120.000000     0.000000     0.000000     1.000000     0.000000     0.000000     0.000000
    6    -1.000000   120.000000     0.000000     0.000000     1.000000     0.000000     0.000000     0.000000
    7     1.000000   180.000000     0.866025    -0.500000     0.000000     0.000000     0.000000     0.000000
    8    -1.000000   180.000000     0.866025    -0.500000     0.000000     0.000000     0.000000     0.000000
    9     1.000000   180.000000     0.000000     1.000000     0.000000     0.000000     0.000000     0.000000
   10    -1.000000   180.000000     0.000000     1.000000     0.000000     0.000000     0.000000     0.000000
   11     1.000000   180.000000     0.866025     0.500000     0.000000     0.000000     0.000000     0.000000
   12    -1.000000   180.000000     0.866025     0.500000     0.000000     0.000000     0.000000     0.000000
   13     1.000000    60.000000     0.000000     0.000000    -1.000000     0.000000     0.000000     0.500000
   14    -1.000000    60.000000     0.000000     0.000000    -1.000000     0.000000     0.000000     0.500000
   15     1.000000   180.000000     0.000000     0.000000     1.000000     0.000000     0.000000     0.500000
   16    -1.000000   180.000000     0.000000     0.000000     1.000000     0.000000     0.000000     0.500000
   17     1.000000    60.000000     0.000000     0.000000     1.000000     0.000000     0.000000     0.500000
   18    -1.000000    60.000000     0.000000     0.000000     1.000000     0.000000     0.000000     0.500000
   19     1.000000   180.000000     1.000000     0.000000     0.000000     0.000000     0.000000     0.500000
   20    -1.000000   180.000000     1.000000     0.000000     0.000000     0.000000     0.000000     0.500000
   21     1.000000   180.000000     0.500000    -0.866025     0.000000     0.000000     0.000000     0.500000
   22    -1.000000   180.000000     0.500000    -0.866025     0.000000     0.000000     0.000000     0.500000
   23     1.000000   180.000000    -0.500000    -0.866025     0.000000     0.000000     0.000000     0.500000
   24    -1.000000   180.000000    -0.500000    -0.866025     0.000000     0.000000     0.000000     0.500000

 ----------------------------------------------------------------------------- 
|                                                                             |
|           W    W    AA    RRRRR   N    N  II  N    N   GGGG   !!!           |
|           W    W   A  A   R    R  NN   N  II  NN   N  G    G  !!!           |
|           W    W  A    A  R    R  N N  N  II  N N  N  G       !!!           |
|           W WW W  AAAAAA  RRRRR   N  N N  II  N  N N  G  GGG   !            |
|           WW  WW  A    A  R   R   N   NN  II  N   NN  G    G                |
|           W    W  A    A  R    R  N    N  II  N    N   GGGG   !!!           |
|                                                                             |
|      Your generating k-point grid is not commensurate to the symmetry       |
|      of the lattice.  This can cause   slow convergence with respect        |
|      to k-points for HF type calculations                                   |
|      suggested SOLUTIONS:                                                   |
|       ) if not already the case, use automatic k-point generation           |
|       ) shift your grid to Gamma (G) (e.g. required for hex or fcc lattice) |
|                                                                             |
 ----------------------------------------------------------------------------- 

 
 Subroutine IBZKPT_HF returns following result:
 ==============================================
 
 Found    198 k-points in 1st BZ
 the following    198 k-points will be used (e.g. in the exchange kernel)
 Following reciprocal coordinates:   # in IRBZ
  0.000000  0.000000  0.000000    0.01250000   1 t-inv F
  0.250000  0.000000  0.000000    0.01250000   2 t-inv F
  0.500000  0.000000  0.000000    0.01250000   3 t-inv F
  0.250000  0.250000  0.000000    0.01250000   4 t-inv F
  0.000000  0.000000  0.200000    0.01250000   5 t-inv F
  0.250000  0.000000  0.200000    0.01250000   6 t-inv F
  0.500000  0.000000  0.200000    0.01250000   7 t-inv F
  0.250000  0.250000  0.200000    0.01250000   8 t-inv F
  0.000000  0.000000  0.400000    0.01250000   9 t-inv F
  0.250000  0.000000  0.400000    0.01250000  10 t-inv F
  0.500000  0.000000  0.400000    0.01250000  11 t-inv F
  0.250000  0.250000  0.400000    0.01250000  12 t-inv F
  0.000000  0.000000  0.000000    0.00000000  13 t-inv F
  0.041667  0.000000  0.000000    0.00000000  14 t-inv F
  0.083333  0.000000  0.000000    0.00000000  15 t-inv F
  0.125000  0.000000  0.000000    0.00000000  16 t-inv F
  0.166667  0.000000  0.000000    0.00000000  17 t-inv F
  0.208333  0.000000  0.000000    0.00000000  18 t-inv F
  0.250000  0.000000  0.000000    0.00000000  19 t-inv F
  0.291667  0.000000  0.000000    0.00000000  20 t-inv F
  0.333333  0.000000  0.000000    0.00000000  21 t-inv F
  0.375000  0.000000  0.000000    0.00000000  22 t-inv F
  0.416667  0.000000  0.000000    0.00000000  23 t-inv F
  0.458333  0.000000  0.000000    0.00000000  24 t-inv F
  0.500000  0.000000  0.000000    0.00000000  25 t-inv F
  0.500000  0.000000  0.000000    0.00000000  26 t-inv F
  0.472222  0.055556  0.000000    0.00000000  27 t-inv F
  0.444444  0.111111  0.000000    0.00000000  28 t-inv F
  0.416667  0.166667  0.000000    0.00000000  29 t-inv F
  0.388889  0.222222  0.000000    0.00000000  30 t-inv F
  0.361111  0.277778  0.000000    0.00000000  31 t-inv F
  0.333333  0.333333  0.000000    0.00000000  32 t-inv F
  0.333333  0.333333  0.000000    0.00000000  33 t-inv F
  0.309524  0.309524  0.000000    0.00000000  34 t-inv F
  0.285714  0.285714  0.000000    0.00000000  35 t-inv F
  0.261905  0.261905  0.000000    0.00000000  36 t-inv F
  0.238095  0.238095  0.000000    0.00000000  37 t-inv F
  0.214286  0.214286  0.000000    0.00000000  38 t-inv F
  0.190476  0.190476  0.000000    0.00000000  39 t-inv F
  0.166667  0.166667  0.000000    0.00000000  40 t-inv F
  0.142857  0.142857  0.000000    0.00000000  41 t-inv F
  0.119048  0.119048  0.000000    0.00000000  42 t-inv F
  0.095238  0.095238  0.000000    0.00000000  43 t-inv F
  0.071429  0.071429  0.000000    0.00000000  44 t-inv F
  0.047619  0.047619  0.000000    0.00000000  45 t-inv F
  0.023810  0.023810  0.000000    0.00000000  46 t-inv F
  0.000000  0.000000  0.000000    0.00000000  47 t-inv F
  0.000000  0.000000  0.000000    0.00000000  48 t-inv F
  0.000000  0.000000  0.033333    0.00000000  49 t-inv F
  0.000000  0.000000  0.066667    0.00000000  50 t-inv F
  0.000000  0.000000  0.100000    0.00000000  51 t-inv F
  0.000000  0.000000  0.133333    0.00000000  52 t-inv F
  0.000000  0.000000  0.166667    0.00000000  53 t-inv F
  0.000000  0.000000  0.200000    0.00000000  54 t-inv F
  0.000000  0.000000  0.233333    0.00000000  55 t-inv F
  0.000000  0.000000  0.266667    0.00000000  56 t-inv F
  0.000000  0.000000  0.300000    0.00000000  57 t-inv F
  0.000000  0.000000  0.333333    0.00000000  58 t-inv F
  0.000000  0.000000  0.366667    0.00000000  59 t-inv F
  0.000000  0.000000  0.400000    0.00000000  60 t-inv F
  0.000000  0.000000  0.433333    0.00000000  61 t-inv F
  0.000000  0.000000  0.466667    0.00000000  62 t-inv F
  0.000000  0.000000  0.500000    0.00000000  63 t-inv F
  0.000000  0.000000  0.500000    0.00000000  64 t-inv F
  0.041667  0.000000  0.500000    0.00000000  65 t-inv F
  0.083333  0.000000  0.500000    0.00000000  66 t-inv F
  0.125000  0.000000  0.500000    0.00000000  67 t-inv F
  0.166667  0.000000  0.500000    0.00000000  68 t-inv F
  0.208333  0.000000  0.500000    0.00000000  69 t-inv F
  0.250000  0.000000  0.500000    0.00000000  70 t-inv F
  0.291667  0.000000  0.500000    0.00000000  71 t-inv F
  0.333333  0.000000  0.500000    0.00000000  72 t-inv F
  0.375000  0.000000  0.500000    0.00000000  73 t-inv F
  0.416667  0.000000  0.500000    0.00000000  74 t-inv F
  0.458333  0.000000  0.500000    0.00000000  75 t-inv F
  0.500000  0.000000  0.500000    0.00000000  76 t-inv F
  0.500000  0.000000  0.500000    0.00000000  77 t-inv F
  0.472222  0.055556  0.500000    0.00000000  78 t-inv F
  0.444444  0.111111  0.500000    0.00000000  79 t-inv F
  0.416667  0.166667  0.500000    0.00000000  80 t-inv F
  0.388889  0.222222  0.500000    0.00000000  81 t-inv F
  0.361111  0.277778  0.500000    0.00000000  82 t-inv F
  0.333333  0.333333  0.500000    0.00000000  83 t-inv F
  0.333333  0.333333  0.500000    0.00000000  84 t-inv F
  0.309524  0.309524  0.500000    0.00000000  85 t-inv F
  0.285714  0.285714  0.500000    0.00000000  86 t-inv F
  0.261905  0.261905  0.500000    0.00000000  87 t-inv F
  0.238095  0.238095  0.500000    0.00000000  88 t-inv F
  0.214286  0.214286  0.500000    0.00000000  89 t-inv F
  0.190476  0.190476  0.500000    0.00000000  90 t-inv F
  0.166667  0.166667  0.500000    0.00000000  91 t-inv F
  0.142857  0.142857  0.500000    0.00000000  92 t-inv F
  0.119048  0.119048  0.500000    0.00000000  93 t-inv F
  0.095238  0.095238  0.500000    0.00000000  94 t-inv F
  0.071429  0.071429  0.500000    0.00000000  95 t-inv F
  0.047619  0.047619  0.500000    0.00000000  96 t-inv F
  0.023810  0.023810  0.500000    0.00000000  97 t-inv F
  0.000000  0.000000  0.500000    0.00000000  98 t-inv F
  0.500000  0.000000  0.500000    0.00000000  99 t-inv F
  0.500000  0.000000  0.466667    0.00000000 100 t-inv F
  0.500000  0.000000  0.433333    0.00000000 101 t-inv F
  0.500000  0.000000  0.400000    0.00000000 102 t-inv F
  0.500000  0.000000  0.366667    0.00000000 103 t-inv F
  0.500000  0.000000  0.333333    0.00000000 104 t-inv F
  0.500000  0.000000  0.300000    0.00000000 105 t-inv F
  0.500000  0.000000  0.266667    0.00000000 106 t-inv F
  0.500000  0.000000  0.233333    0.00000000 107 t-inv F
  0.500000  0.000000  0.200000    0.00000000 108 t-inv F
  0.500000  0.000000  0.166667    0.00000000 109 t-inv F
  0.500000  0.000000  0.133333    0.00000000 110 t-inv F
  0.500000  0.000000  0.100000    0.00000000 111 t-inv F
  0.500000  0.000000  0.066667    0.00000000 112 t-inv F
  0.500000  0.000000  0.033333    0.00000000 113 t-inv F
  0.500000  0.000000  0.000000    0.00000000 114 t-inv F
  0.333333  0.333333  0.500000    0.00000000 115 t-inv F
  0.333333  0.333333  0.466667    0.00000000 116 t-inv F
  0.333333  0.333333  0.433333    0.00000000 117 t-inv F
  0.333333  0.333333  0.400000    0.00000000 118 t-inv F
  0.333333  0.333333  0.366667    0.00000000 119 t-inv F
  0.333333  0.333333  0.333333    0.00000000 120 t-inv F
  0.333333  0.333333  0.300000    0.00000000 121 t-inv F
  0.333333  0.333333  0.266667    0.00000000 122 t-inv F
  0.333333  0.333333  0.233333    0.00000000 123 t-inv F
  0.333333  0.333333  0.200000    0.00000000 124 t-inv F
  0.333333  0.333333  0.166667    0.00000000 125 t-inv F
  0.333333  0.333333  0.133333    0.00000000 126 t-inv F
  0.333333  0.333333  0.100000    0.00000000 127 t-inv F
  0.333333  0.333333  0.066667    0.00000000 128 t-inv F
  0.333333  0.333333  0.033333    0.00000000 129 t-inv F
  0.333333  0.333333  0.000000    0.00000000 130 t-inv F
 -0.250000  0.000000  0.000000    0.01250000   2 t-inv F
 -0.250000  0.250000  0.000000    0.01250000   2 t-inv F
  0.250000 -0.250000  0.000000    0.01250000   2 t-inv F
  0.000000 -0.250000  0.000000    0.01250000   2 t-inv F
  0.000000  0.250000  0.000000    0.01250000   2 t-inv F
 -0.500000  0.500000  0.000000    0.01250000   3 t-inv F
  0.000000 -0.500000  0.000000    0.01250000   3 t-inv F
 -0.250000 -0.250000  0.000000    0.01250000   4 t-inv F
 -0.500000  0.250000  0.000000    0.01250000   4 t-inv F
  0.500000 -0.250000  0.000000    0.01250000   4 t-inv F
  0.250000 -0.500000  0.000000    0.01250000   4 t-inv F
 -0.250000  0.500000  0.000000    0.01250000   4 t-inv F
  0.000000  0.000000 -0.200000    0.01250000   5 t-inv F
 -0.250000  0.000000 -0.200000    0.01250000   6 t-inv F
 -0.250000  0.250000  0.200000    0.01250000   6 t-inv F
  0.250000 -0.250000 -0.200000    0.01250000   6 t-inv F
  0.000000 -0.250000  0.200000    0.01250000   6 t-inv F
  0.000000  0.250000 -0.200000    0.01250000   6 t-inv F
  0.000000 -0.250000 -0.200000    0.01250000   6 t-inv F
  0.000000  0.250000  0.200000    0.01250000   6 t-inv F
 -0.250000  0.250000 -0.200000    0.01250000   6 t-inv F
  0.250000 -0.250000  0.200000    0.01250000   6 t-inv F
  0.250000  0.000000 -0.200000    0.01250000   6 t-inv F
 -0.250000  0.000000  0.200000    0.01250000   6 t-inv F
 -0.500000  0.000000 -0.200000    0.01250000   7 t-inv F
 -0.500000  0.500000  0.200000    0.01250000   7 t-inv F
  0.500000 -0.500000 -0.200000    0.01250000   7 t-inv F
  0.000000 -0.500000  0.200000    0.01250000   7 t-inv F
  0.000000  0.500000 -0.200000    0.01250000   7 t-inv F
 -0.250000 -0.250000 -0.200000    0.01250000   8 t-inv F
 -0.500000  0.250000  0.200000    0.01250000   8 t-inv F
  0.500000 -0.250000 -0.200000    0.01250000   8 t-inv F
  0.250000 -0.500000  0.200000    0.01250000   8 t-inv F
 -0.250000  0.500000 -0.200000    0.01250000   8 t-inv F
 -0.250000  0.500000  0.200000    0.01250000   8 t-inv F
  0.250000 -0.500000 -0.200000    0.01250000   8 t-inv F
 -0.250000 -0.250000  0.200000    0.01250000   8 t-inv F
  0.250000  0.250000 -0.200000    0.01250000   8 t-inv F
  0.500000 -0.250000  0.200000    0.01250000   8 t-inv F
 -0.500000  0.250000 -0.200000    0.01250000   8 t-inv F
  0.000000  0.000000 -0.400000    0.01250000   9 t-inv F
 -0.250000  0.000000 -0.400000    0.01250000  10 t-inv F
 -0.250000  0.250000  0.400000    0.01250000  10 t-inv F
  0.250000 -0.250000 -0.400000    0.01250000  10 t-inv F
  0.000000 -0.250000  0.400000    0.01250000  10 t-inv F
  0.000000  0.250000 -0.400000    0.01250000  10 t-inv F
  0.000000 -0.250000 -0.400000    0.01250000  10 t-inv F
  0.000000  0.250000  0.400000    0.01250000  10 t-inv F
 -0.250000  0.250000 -0.400000    0.01250000  10 t-inv F
  0.250000 -0.250000  0.400000    0.01250000  10 t-inv F
  0.250000  0.000000 -0.400000    0.01250000  10 t-inv F
 -0.250000  0.000000  0.400000    0.01250000  10 t-inv F
 -0.500000  0.000000 -0.400000    0.01250000  11 t-inv F
 -0.500000  0.500000  0.400000    0.01250000  11 t-inv F
  0.500000 -0.500000 -0.400000    0.01250000  11 t-inv F
  0.000000 -0.500000  0.400000    0.01250000  11 t-inv F
  0.000000  0.500000 -0.400000    0.01250000  11 t-inv F
 -0.250000 -0.250000 -0.400000    0.01250000  12 t-inv F
 -0.500000  0.250000  0.400000    0.01250000  12 t-inv F
  0.500000 -0.250000 -0.400000    0.01250000  12 t-inv F
  0.250000 -0.500000  0.400000    0.01250000  12 t-inv F
 -0.250000  0.500000 -0.400000    0.01250000  12 t-inv F
 -0.250000  0.500000  0.400000    0.01250000  12 t-inv F
  0.250000 -0.500000 -0.400000    0.01250000  12 t-inv F
 -0.250000 -0.250000  0.400000    0.01250000  12 t-inv F
  0.250000  0.250000 -0.400000    0.01250000  12 t-inv F
  0.500000 -0.250000  0.400000    0.01250000  12 t-inv F
 -0.500000  0.250000 -0.400000    0.01250000  12 t-inv F


--------------------------------------------------------------------------------------------------------




 Dimension of arrays:
   k-points           NKPTS =    130   k-points in BZ     NKDIM =    198   number of bands    NBANDS=     72
   number of dos      NEDOS =    301   number of ions     NIONS =     16
   non local maximal  LDIM  =      6   non local SUM 2l+1 LMDIM =     18
   total plane-waves  NPLWV = 104976
   max r-space proj   IRMAX =      1   max aug-charges    IRDMAX= 151771
   dimension x,y,z NGX =    54 NGY =   54 NGZ =   36
   dimension x,y,z NGXF=   108 NGYF=  108 NGZF=   72
   support grid    NGXF=   216 NGYF=  216 NGZF=  144
   ions per type =              10   6
   NGX,Y,Z   is equivalent  to a cutoff of  12.99, 12.99, 12.54 a.u.
   NGXF,Y,Z  is equivalent  to a cutoff of  25.98, 25.98, 25.08 a.u.

 SYSTEM =  matgen-band                             
 POSCAR =  Fe10 Si6                                

 Startparameter for this run:
   NWRITE =      2    write-flag & timer
   PREC   = accura    normal or accurate (medium, high low for compatibility)
   ISTART =      1    job   : 0-new  1-cont  2-samecut
   ICHARG =     11    charge: 1-file 2-atom 10-const
   ISPIN  =      2    spin polarized calculation?
   LNONCOLLINEAR =      F non collinear calculations
   LSORBIT =      F    spin-orbit coupling
   INIWAV =      1    electr: 0-lowe 1-rand  2-diag
   LASPH  =      F    aspherical Exc in radial PAW
   METAGGA=      F    non-selfconsistent MetaGGA calc.

 Electronic Relaxation 1
   ENCUT  =  520.0 eV  38.22 Ry    6.18 a.u.  12.85 12.85  8.87*2*pi/ulx,y,z
   ENINI  =  520.0     initial cutoff
   ENAUG  =  511.4 eV  augmentation charge cutoff
   NELM   =     60;   NELMIN=  6; NELMDL=  0     # of ELM steps 
   EDIFF  = 0.1E-02   stopping-criterion for ELM
   LREAL  =      F    real-space projection
   NLSPLINE    = F    spline interpolate recip. space projectors
   LCOMPAT=      F    compatible to vasp.4.4
   GGA_COMPAT  = T    GGA compatible to vasp.4.4-vasp.4.6
   LMAXPAW     = -100 max onsite density
   LMAXMIX     =    2 max onsite mixed and CHGCAR
   VOSKOWN=      0    Vosko Wilk Nusair interpolation
   ROPT   =    0.00000   0.00000
 Ionic relaxation
   EDIFFG = -.1E-01   stopping-criterion for IOM
   NSW    =      0    number of steps for IOM
   NBLOCK =      1;   KBLOCK =      1    inner block; outer block 
   IBRION =     -1    ionic relax: 0-MD 1-quasi-New 2-CG
   NFREE  =      0    steps in history (QN), initial steepest desc. (CG)
   ISIF   =      0    stress and relaxation
   IWAVPR =     10    prediction:  0-non 1-charg 2-wave 3-comb
   ISYM   =      3    0-nonsym 1-usesym 2-fastsym
   LCORR  =      T    Harris-Foulkes like correction to forces

   POTIM  = 0.0500    time-step for ionic-motion
   TEIN   =    0.0    initial temperature
   TEBEG  =    0.0;   TEEND  =   0.0 temperature during run
   SMASS  =  -3.00    Nose mass-parameter (am)
   estimated Nose-frequenzy (Omega)   =  0.10E-29 period in steps =****** mass=  -0.109E-26a.u.
   SCALEE = 1.0000    scale energy and forces
   NPACO  =    256;   APACO  = 16.0  distance and # of slots for P.C.
   PSTRESS=    0.0 pullay stress

  Mass of Ions in am
   POMASS =  55.85 28.09
  Ionic Valenz
   ZVAL   =   8.00  4.00
  Atomic Wigner-Seitz radii
   RWIGS  =  -1.00 -1.00
  virtual crystal weights 
   VCA    =   1.00  1.00
   NELECT =     104.0000    total number of electrons
   NUPDOWN=      -1.0000    fix difference up-down

 DOS related values:
   EMIN   =  10.00;   EMAX   =-10.00  energy-range for DOS
   EFERMI =   0.00
   ISMEAR =     0;   SIGMA  =   0.05  broadening in eV -4-tet -1-fermi 0-gaus

 Electronic relaxation 2 (details)
   IALGO  =     53    algorithm
   LDIAG  =      T    sub-space diagonalisation (order eigenvalues)
   LSUBROT=      F    optimize rotation matrix (better conditioning)
   TURBO    =      0    0=normal 1=particle mesh
   IRESTART =      0    0=no restart 2=restart with 2 vectors
   NREBOOT  =      0    no. of reboots
   NMIN     =      0    reboot dimension
   EREF     =   0.00    reference energy to select bands
   IMIX   =      4    mixing-type and parameters
     AMIX     =   0.10;   BMIX     =  1.20
     AMIX_MAG =   0.40;   BMIX_MAG =  1.20
     AMIN     =   0.10
     WC   =   100.;   INIMIX=   1;  MIXPRE=   1;  MAXMIX= -45

 Intra band minimization:
   WEIMIN = 0.0000     energy-eigenvalue tresh-hold
   EBREAK =  0.35E-05  absolut break condition
   DEPER  =   0.30     relativ break condition  

   TIME   =   0.40     timestep for ELM

  volume/ion in A,a.u.               =      12.33        83.23
  Fermi-wavevector in a.u.,A,eV,Ry     =   1.322339  2.498858 23.790882  1.748580
  Thomas-Fermi vector in A             =   2.452027
 
 Write flags
   LWAVE        =      F    write WAVECAR
   LDOWNSAMPLE  =      F    k-point downsampling of WAVECAR
   LCHARG       =      T    write CHGCAR
   LVTOT        =      F    write LOCPOT, total local potential
   LVHAR        =      F    write LOCPOT, Hartree potential only
   LELF         =      F    write electronic localiz. function (ELF)
   LORBIT       =     11    0 simple, 1 ext, 2 COOP (PROOUT), +10 PAW based schemes


 Dipole corrections
   LMONO  =      F    monopole corrections only (constant potential shift)
   LDIPOL =      F    correct potential (dipole corrections)
   IDIPOL =      0    1-x, 2-y, 3-z, 4-all directions 
   EPSILON=  1.0000000 bulk dielectric constant

 Exchange correlation treatment:
   GGA     =    --    GGA type
   LEXCH   =     8    internal setting for exchange type
   VOSKOWN=      0    Vosko Wilk Nusair interpolation
   EXXOEP  =     0    0=HF, 1=EXX-LHF (local Hartree Fock) 2=EXX OEP
   LHFCALC =     T    Hartree Fock is set to
   LSYMGRAD=     F    symmetrize gradient (conserves proper symmetry)
   PRECFOCK=normal    Normal, Fast or Accurate (Low or Medium for compatibility)
   LRHFCALC=     F    long range Hartree Fock
   LRSCOR  =     F    long range correlation only (use DFT for short range part)
   LTHOMAS =     F    Thomas Fermi screening in HF
   LMODELHF=     F    short range full HF, long range fraction AEXX
   ENCUT4O =  -1.0   cutoff for four orbital integrals eV
   LMAXFOCK=     4    L truncation for augmentation on plane wave grid
   LMAXFOCKAE=  -1    L truncation for all-electron charge restoration on plane wave grid
   NMAXFOCKAE=   1    number of basis functions for all-electron charge restoration
   LFOCKAEDFT=     F  apply the AE augmentation even for DFT
   NKREDX  =     1    reduce k-point grid by
   NKREDY  =     1    reduce k-point grid by
   NKREDZ  =     1    reduce k-point grid by
   SHIFTRED=     F    shift reduced grid of Gamma
   HFKIDENT=     F    idential grid for each k-point
   ODDONLY =     F    use only odd q-grid points
   EVENONLY=     F    use only even q-grid points
   HFALPHA =   -1.0000 decay constant for conv. correction
   MCALPHA =    0.0000 extent of test-charge in conv. correction in multipole expansion
   AEXX    =    0.2500 exact exchange contribution
   HFSCREEN=    0.2000 screening length (either q_TF or 0.3 A-1)
   HFSCREENC=   0.2000 screening length for correlation (either q_TF or 0.3 A-1)
   HFRCUT  =    0.0000 spherical cutoff for potential kernel
   ALDAX   =    0.7500 LDA exchange part
   AGGAX   =    0.7500 GGA exchange part
   ALDAC   =    1.0000 LDA correlation
   AGGAC   =    1.0000 GGA correlation
   ENCUTFOCK=  -1.0 apply spherical cutoff to Coloumb kernel
   NBANDSGWLOW=     1    first orbital included in HF term
   NBLOCK_FOCK=    64    blocking factor in FOCK_ACC
 Linear response parameters
   LEPSILON=     F    determine dielectric tensor
   LRPA    =     F    only Hartree local field effects (RPA)
   LNABLA  =     F    use nabla operator in PAW spheres
   LVEL    =     F    velocity operator in full k-point grid
   LINTERFAST=   F  fast interpolation
   KINTER  =     0    interpolate to denser k-point grid
   CSHIFT  =0.1000    complex shift for real part using Kramers Kronig
   OMEGAMAX=  -1.0    maximum frequency
   DEG_THRESHOLD= 0.2000000E-02 threshold for treating states as degnerate
   RTIME   =   -0.100 relaxation time in fs
  (WPLASMAI=    0.000 imaginary part of plasma frequency in eV, 0.658/RTIME)
   DFIELD  = 0.0000000 0.0000000 0.0000000 field for delta impulse in time
 
 Orbital magnetization related:
   ORBITALMAG=     F  switch on orbital magnetization
   LCHIMAG   =     F  perturbation theory with respect to B field
   DQ        =  0.001000  dq finite difference perturbation B field
   LLRAUG    =     F  two centre corrections for induced B field



--------------------------------------------------------------------------------------------------------


 Static calculation
 charge density and potential remain constant during run
 spin polarized calculation
 Conjugate gradient for all bands (Freysoldt, et al. PRB 79, 241103 (2009))
 perform sub-space diagonalisation
    before iterative eigenvector-optimisation
 no mixing
 using additional bands           20
 reciprocal scheme for non local part
 use partial core corrections
 calculate Harris-corrections to forces 
   (improved forces if not selfconsistent)
 use gradient corrections 
 WARNING: stress and forces are not correct
  (second derivative of E(xc) not defined)
 use of overlap-Matrix (Vanderbilt PP)
 Gauss-broadening in eV      SIGMA  =   0.05


--------------------------------------------------------------------------------------------------------


  energy-cutoff  :      520.00
  volume of cell :      197.35
      direct lattice vectors                 reciprocal lattice vectors
     6.910421036  0.000000000  0.000000000     0.144708983  0.083547770  0.000000000
    -3.455210518  5.984600168  0.000000000     0.000000000  0.167095541  0.000000000
     0.000000000  0.000000000  4.771882571     0.000000000  0.000000000  0.209560899

  length of vectors
     6.910421036  6.910421036  4.771882571     0.167095541  0.167095541  0.209560899


 
 old parameters found on file WAVECAR:
  energy-cutoff  :      520.00
  volume of cell :      197.35
      direct lattice vectors                 reciprocal lattice vectors
     6.910421036  0.000000000  0.000000000     0.144708983  0.083547770  0.000000000
    -3.455210518  5.984600168  0.000000000     0.000000000  0.167095541  0.000000000
     0.000000000  0.000000000  4.771882571     0.000000000  0.000000000  0.209560899

  length of vectors

 
 k-points in units of 2pi/SCALE and weight: 0.040   4   4   5   12  0.040  118    9 
   0.00000000  0.00000000  0.00000000       0.013
   0.03617725  0.02088694  0.00000000       0.075
   0.07235449  0.04177389  0.00000000       0.037
   0.03617725  0.06266083  0.00000000       0.075
   0.00000000  0.00000000  0.04191218       0.025
   0.03617725  0.02088694  0.04191218       0.150
   0.07235449  0.04177389  0.04191218       0.075
   0.03617725  0.06266083  0.04191218       0.150
   0.00000000  0.00000000  0.08382436       0.025
   0.03617725  0.02088694  0.08382436       0.150
   0.07235449  0.04177389  0.08382436       0.075
   0.03617725  0.06266083  0.08382436       0.150
   0.00000000  0.00000000  0.00000000       0.000
   0.00602954  0.00348116  0.00000000       0.000
   0.01205908  0.00696231  0.00000000       0.000
   0.01808862  0.01044347  0.00000000       0.000
   0.02411816  0.01392463  0.00000000       0.000
   0.03014770  0.01740579  0.00000000       0.000
   0.03617725  0.02088694  0.00000000       0.000
   0.04220679  0.02436810  0.00000000       0.000
   0.04823633  0.02784926  0.00000000       0.000
   0.05426587  0.03133041  0.00000000       0.000
   0.06029541  0.03481157  0.00000000       0.000
   0.06632495  0.03829273  0.00000000       0.000
   0.07235449  0.04177389  0.00000000       0.000
   0.07235449  0.04177389  0.00000000       0.000
   0.06833480  0.04873620  0.00000000       0.000
   0.06431510  0.05569851  0.00000000       0.000
   0.06029541  0.06266083  0.00000000       0.000
   0.05627572  0.06962314  0.00000000       0.000
   0.05225602  0.07658546  0.00000000       0.000
   0.04823633  0.08354777  0.00000000       0.000
   0.04823633  0.08354777  0.00000000       0.000
   0.04479088  0.07758007  0.00000000       0.000
   0.04134542  0.07161237  0.00000000       0.000
   0.03789997  0.06564468  0.00000000       0.000
   0.03445452  0.05967698  0.00000000       0.000
   0.03100907  0.05370928  0.00000000       0.000
   0.02756362  0.04774158  0.00000000       0.000
   0.02411816  0.04177389  0.00000000       0.000
   0.02067271  0.03580619  0.00000000       0.000
   0.01722726  0.02983849  0.00000000       0.000
   0.01378181  0.02387079  0.00000000       0.000
   0.01033636  0.01790309  0.00000000       0.000
   0.00689090  0.01193540  0.00000000       0.000
   0.00344545  0.00596770  0.00000000       0.000
   0.00000000  0.00000000  0.00000000       0.000
   0.00000000  0.00000000  0.00000000       0.000
   0.00000000  0.00000000  0.00698536       0.000
   0.00000000  0.00000000  0.01397073       0.000
   0.00000000  0.00000000  0.02095609       0.000
   0.00000000  0.00000000  0.02794145       0.000
   0.00000000  0.00000000  0.03492682       0.000
   0.00000000  0.00000000  0.04191218       0.000
   0.00000000  0.00000000  0.04889754       0.000
   0.00000000  0.00000000  0.05588291       0.000
   0.00000000  0.00000000  0.06286827       0.000
   0.00000000  0.00000000  0.06985363       0.000
   0.00000000  0.00000000  0.07683900       0.000
   0.00000000  0.00000000  0.08382436       0.000
   0.00000000  0.00000000  0.09080972       0.000
   0.00000000  0.00000000  0.09779509       0.000
   0.00000000  0.00000000  0.10478045       0.000
   0.00000000  0.00000000  0.10478045       0.000
   0.00602954  0.00348116  0.10478045       0.000
   0.01205908  0.00696231  0.10478045       0.000
   0.01808862  0.01044347  0.10478045       0.000
   0.02411816  0.01392463  0.10478045       0.000
   0.03014770  0.01740579  0.10478045       0.000
   0.03617725  0.02088694  0.10478045       0.000
   0.04220679  0.02436810  0.10478045       0.000
   0.04823633  0.02784926  0.10478045       0.000
   0.05426587  0.03133041  0.10478045       0.000
   0.06029541  0.03481157  0.10478045       0.000
   0.06632495  0.03829273  0.10478045       0.000
   0.07235449  0.04177389  0.10478045       0.000
   0.07235449  0.04177389  0.10478045       0.000
   0.06833480  0.04873620  0.10478045       0.000
   0.06431510  0.05569851  0.10478045       0.000
   0.06029541  0.06266083  0.10478045       0.000
   0.05627572  0.06962314  0.10478045       0.000
   0.05225602  0.07658546  0.10478045       0.000
   0.04823633  0.08354777  0.10478045       0.000
   0.04823633  0.08354777  0.10478045       0.000
   0.04479088  0.07758007  0.10478045       0.000
   0.04134542  0.07161237  0.10478045       0.000
   0.03789997  0.06564468  0.10478045       0.000
   0.03445452  0.05967698  0.10478045       0.000
   0.03100907  0.05370928  0.10478045       0.000
   0.02756362  0.04774158  0.10478045       0.000
   0.02411816  0.04177389  0.10478045       0.000
   0.02067271  0.03580619  0.10478045       0.000
   0.01722726  0.02983849  0.10478045       0.000
   0.01378181  0.02387079  0.10478045       0.000
   0.01033636  0.01790309  0.10478045       0.000
   0.00689090  0.01193540  0.10478045       0.000
   0.00344545  0.00596770  0.10478045       0.000
   0.00000000  0.00000000  0.10478045       0.000
   0.07235449  0.04177389  0.10478045       0.000
   0.07235449  0.04177389  0.09779509       0.000
   0.07235449  0.04177389  0.09080972       0.000
   0.07235449  0.04177389  0.08382436       0.000
   0.07235449  0.04177389  0.07683900       0.000
   0.07235449  0.04177389  0.06985363       0.000
   0.07235449  0.04177389  0.06286827       0.000
   0.07235449  0.04177389  0.05588291       0.000
   0.07235449  0.04177389  0.04889754       0.000
   0.07235449  0.04177389  0.04191218       0.000
   0.07235449  0.04177389  0.03492682       0.000
   0.07235449  0.04177389  0.02794145       0.000
   0.07235449  0.04177389  0.02095609       0.000
   0.07235449  0.04177389  0.01397073       0.000
   0.07235449  0.04177389  0.00698536       0.000
   0.07235449  0.04177389  0.00000000       0.000
   0.04823633  0.08354777  0.10478045       0.000
   0.04823633  0.08354777  0.09779509       0.000
   0.04823633  0.08354777  0.09080972       0.000
   0.04823633  0.08354777  0.08382436       0.000
   0.04823633  0.08354777  0.07683900       0.000
   0.04823633  0.08354777  0.06985363       0.000
   0.04823633  0.08354777  0.06286827       0.000
   0.04823633  0.08354777  0.05588291       0.000
   0.04823633  0.08354777  0.04889754       0.000
   0.04823633  0.08354777  0.04191218       0.000
   0.04823633  0.08354777  0.03492682       0.000
   0.04823633  0.08354777  0.02794145       0.000
   0.04823633  0.08354777  0.02095609       0.000
   0.04823633  0.08354777  0.01397073       0.000
   0.04823633  0.08354777  0.00698536       0.000
   0.04823633  0.08354777  0.00000000       0.000
 
 k-points in reciprocal lattice and weights: 0.040   4   4   5   12  0.040  118    9 
   0.00000000  0.00000000  0.00000000       0.013
   0.25000000  0.00000000  0.00000000       0.075
   0.50000000  0.00000000  0.00000000       0.037
   0.25000000  0.25000000  0.00000000       0.075
   0.00000000  0.00000000  0.20000000       0.025
   0.25000000  0.00000000  0.20000000       0.150
   0.50000000  0.00000000  0.20000000       0.075
   0.25000000  0.25000000  0.20000000       0.150
   0.00000000  0.00000000  0.40000000       0.025
   0.25000000  0.00000000  0.40000000       0.150
   0.50000000  0.00000000  0.40000000       0.075
   0.25000000  0.25000000  0.40000000       0.150
   0.00000000  0.00000000  0.00000000       0.000
   0.04166667  0.00000000  0.00000000       0.000
   0.08333333  0.00000000  0.00000000       0.000
   0.12500000  0.00000000  0.00000000       0.000
   0.16666667  0.00000000  0.00000000       0.000
   0.20833333  0.00000000  0.00000000       0.000
   0.25000000  0.00000000  0.00000000       0.000
   0.29166667  0.00000000  0.00000000       0.000
   0.33333333  0.00000000  0.00000000       0.000
   0.37500000  0.00000000  0.00000000       0.000
   0.41666667  0.00000000  0.00000000       0.000
   0.45833333  0.00000000  0.00000000       0.000
   0.50000000  0.00000000  0.00000000       0.000
   0.50000000  0.00000000  0.00000000       0.000
   0.47222222  0.05555556  0.00000000       0.000
   0.44444444  0.11111111  0.00000000       0.000
   0.41666667  0.16666667  0.00000000       0.000
   0.38888889  0.22222222  0.00000000       0.000
   0.36111111  0.27777778  0.00000000       0.000
   0.33333333  0.33333333  0.00000000       0.000
   0.33333333  0.33333333  0.00000000       0.000
   0.30952381  0.30952381  0.00000000       0.000
   0.28571429  0.28571429  0.00000000       0.000
   0.26190476  0.26190476  0.00000000       0.000
   0.23809524  0.23809524  0.00000000       0.000
   0.21428571  0.21428571  0.00000000       0.000
   0.19047619  0.19047619  0.00000000       0.000
   0.16666667  0.16666667  0.00000000       0.000
   0.14285714  0.14285714  0.00000000       0.000
   0.11904762  0.11904762  0.00000000       0.000
   0.09523810  0.09523810  0.00000000       0.000
   0.07142857  0.07142857  0.00000000       0.000
   0.04761905  0.04761905  0.00000000       0.000
   0.02380952  0.02380952  0.00000000       0.000
   0.00000000  0.00000000  0.00000000       0.000
   0.00000000  0.00000000  0.00000000       0.000
   0.00000000  0.00000000  0.03333333       0.000
   0.00000000  0.00000000  0.06666667       0.000
   0.00000000  0.00000000  0.10000000       0.000
   0.00000000  0.00000000  0.13333333       0.000
   0.00000000  0.00000000  0.16666667       0.000
   0.00000000  0.00000000  0.20000000       0.000
   0.00000000  0.00000000  0.23333333       0.000
   0.00000000  0.00000000  0.26666667       0.000
   0.00000000  0.00000000  0.30000000       0.000
   0.00000000  0.00000000  0.33333333       0.000
   0.00000000  0.00000000  0.36666667       0.000
   0.00000000  0.00000000  0.40000000       0.000
   0.00000000  0.00000000  0.43333333       0.000
   0.00000000  0.00000000  0.46666667       0.000
   0.00000000  0.00000000  0.50000000       0.000
   0.00000000  0.00000000  0.50000000       0.000
   0.04166667  0.00000000  0.50000000       0.000
   0.08333333  0.00000000  0.50000000       0.000
   0.12500000  0.00000000  0.50000000       0.000
   0.16666667  0.00000000  0.50000000       0.000
   0.20833333  0.00000000  0.50000000       0.000
   0.25000000  0.00000000  0.50000000       0.000
   0.29166667  0.00000000  0.50000000       0.000
   0.33333333  0.00000000  0.50000000       0.000
   0.37500000  0.00000000  0.50000000       0.000
   0.41666667  0.00000000  0.50000000       0.000
   0.45833333  0.00000000  0.50000000       0.000
   0.50000000  0.00000000  0.50000000       0.000
   0.50000000  0.00000000  0.50000000       0.000
   0.47222222  0.05555556  0.50000000       0.000
   0.44444444  0.11111111  0.50000000       0.000
   0.41666667  0.16666667  0.50000000       0.000
   0.38888889  0.22222222  0.50000000       0.000
   0.36111111  0.27777778  0.50000000       0.000
   0.33333333  0.33333333  0.50000000       0.000
   0.33333333  0.33333333  0.50000000       0.000
   0.30952381  0.30952381  0.50000000       0.000
   0.28571429  0.28571429  0.50000000       0.000
   0.26190476  0.26190476  0.50000000       0.000
   0.23809524  0.23809524  0.50000000       0.000
   0.21428571  0.21428571  0.50000000       0.000
   0.19047619  0.19047619  0.50000000       0.000
   0.16666667  0.16666667  0.50000000       0.000
   0.14285714  0.14285714  0.50000000       0.000
   0.11904762  0.11904762  0.50000000       0.000
   0.09523810  0.09523810  0.50000000       0.000
   0.07142857  0.07142857  0.50000000       0.000
   0.04761905  0.04761905  0.50000000       0.000
   0.02380952  0.02380952  0.50000000       0.000
   0.00000000  0.00000000  0.50000000       0.000
   0.50000000  0.00000000  0.50000000       0.000
   0.50000000  0.00000000  0.46666667       0.000
   0.50000000  0.00000000  0.43333333       0.000
   0.50000000  0.00000000  0.40000000       0.000
   0.50000000  0.00000000  0.36666667       0.000
   0.50000000  0.00000000  0.33333333       0.000
   0.50000000  0.00000000  0.30000000       0.000
   0.50000000  0.00000000  0.26666667       0.000
   0.50000000  0.00000000  0.23333333       0.000
   0.50000000  0.00000000  0.20000000       0.000
   0.50000000  0.00000000  0.16666667       0.000
   0.50000000  0.00000000  0.13333333       0.000
   0.50000000  0.00000000  0.10000000       0.000
   0.50000000  0.00000000  0.06666667       0.000
   0.50000000  0.00000000  0.03333333       0.000
   0.50000000  0.00000000  0.00000000       0.000
   0.33333333  0.33333333  0.50000000       0.000
   0.33333333  0.33333333  0.46666667       0.000
   0.33333333  0.33333333  0.43333333       0.000
   0.33333333  0.33333333  0.40000000       0.000
   0.33333333  0.33333333  0.36666667       0.000
   0.33333333  0.33333333  0.33333333       0.000
   0.33333333  0.33333333  0.30000000       0.000
   0.33333333  0.33333333  0.26666667       0.000
   0.33333333  0.33333333  0.23333333       0.000
   0.33333333  0.33333333  0.20000000       0.000
   0.33333333  0.33333333  0.16666667       0.000
   0.33333333  0.33333333  0.13333333       0.000
   0.33333333  0.33333333  0.10000000       0.000
   0.33333333  0.33333333  0.06666667       0.000
   0.33333333  0.33333333  0.03333333       0.000
   0.33333333  0.33333333  0.00000000       0.000
 
 position of ions in fractional coordinates (direct lattice) 
   0.00000000  0.23340026  0.75000000
   0.00000000  0.76659974  0.25000000
   0.23340026  0.00000000  0.75000000
   0.23340026  0.23340026  0.25000000
   0.33333333  0.66666667  0.00000000
   0.33333333  0.66666667  0.50000000
   0.66666667  0.33333333  0.00000000
   0.66666667  0.33333333  0.50000000
   0.76659974  0.00000000  0.25000000
   0.76659974  0.76659974  0.75000000
   0.00000000  0.40219951  0.25000000
   0.00000000  0.59780049  0.75000000
   0.40219951  0.00000000  0.25000000
   0.40219951  0.40219951  0.75000000
   0.59780049  0.00000000  0.75000000
   0.59780049  0.59780049  0.25000000
 
 position of ions in cartesian coordinates  (Angst):
  -0.80644704  1.39680725  3.57891193
  -2.64876347  4.58779291  1.19297064
   1.61289409  0.00000000  3.57891193
   0.80644704  1.39680725  1.19297064
  -0.00000000  3.98973345  0.00000000
  -0.00000000  3.98973345  2.38594129
   3.45521052  1.99486672  0.00000000
   3.45521052  1.99486672  2.38594129
   5.29752695  0.00000000  1.19297064
   2.64876347  4.58779291  3.57891193
  -1.38968397  2.40700324  1.19297064
  -2.06552655  3.57759693  3.57891193
   2.77936794  0.00000000  1.19297064
   1.38968397  2.40700324  3.57891193
   4.13105310  0.00000000  3.57891193
   2.06552655  3.57759693  1.19297064
 


--------------------------------------------------------------------------------------------------------


 k-point  1 :   0.0000 0.0000 0.0000  plane waves:    5327
 k-point  2 :   0.2500 0.0000 0.0000  plane waves:    5328
 k-point  3 :   0.5000 0.0000 0.0000  plane waves:    5290
 k-point  4 :   0.2500 0.2500 0.0000  plane waves:    5301
 k-point  5 :   0.0000 0.0000 0.2000  plane waves:    5292
 k-point  6 :   0.2500 0.0000 0.2000  plane waves:    5313
 k-point  7 :   0.5000 0.0000 0.2000  plane waves:    5328
 k-point  8 :   0.2500 0.2500 0.2000  plane waves:    5306
 k-point  9 :   0.0000 0.0000 0.4000  plane waves:    5298
 k-point 10 :   0.2500 0.0000 0.4000  plane waves:    5301
 k-point 11 :   0.5000 0.0000 0.4000  plane waves:    5324
 k-point 12 :   0.2500 0.2500 0.4000  plane waves:    5341
 k-point 13 :   0.0000 0.0000 0.0000  plane waves:    5327
 k-point 14 :   0.0417 0.0000 0.0000  plane waves:    5297
 k-point 15 :   0.0833 0.0000 0.0000  plane waves:    5301
 k-point 16 :   0.1250 0.0000 0.0000  plane waves:    5293
 k-point 17 :   0.1667 0.0000 0.0000  plane waves:    5314
 k-point 18 :   0.2083 0.0000 0.0000  plane waves:    5318
 k-point 19 :   0.2500 0.0000 0.0000  plane waves:    5328
 k-point 20 :   0.2917 0.0000 0.0000  plane waves:    5314
 k-point 21 :   0.3333 0.0000 0.0000  plane waves:    5306
 k-point 22 :   0.3750 0.0000 0.0000  plane waves:    5302
 k-point 23 :   0.4167 0.0000 0.0000  plane waves:    5308
 k-point 24 :   0.4583 0.0000 0.0000  plane waves:    5300
 k-point 25 :   0.5000 0.0000 0.0000  plane waves:    5290
 k-point 26 :   0.5000 0.0000 0.0000  plane waves:    5290
 k-point 27 :   0.4722 0.0556 0.0000  plane waves:    5294
 k-point 28 :   0.4444 0.1111 0.0000  plane waves:    5300
 k-point 29 :   0.4167 0.1667 0.0000  plane waves:    5309
 k-point 30 :   0.3889 0.2222 0.0000  plane waves:    5319
 k-point 31 :   0.3611 0.2778 0.0000  plane waves:    5325
 k-point 32 :   0.3333 0.3333 0.0000  plane waves:    5319
 k-point 33 :   0.3333 0.3333 0.0000  plane waves:    5319
 k-point 34 :   0.3095 0.3095 0.0000  plane waves:    5329
 k-point 35 :   0.2857 0.2857 0.0000  plane waves:    5307
 k-point 36 :   0.2619 0.2619 0.0000  plane waves:    5293
 k-point 37 :   0.2381 0.2381 0.0000  plane waves:    5297
 k-point 38 :   0.2143 0.2143 0.0000  plane waves:    5293
 k-point 39 :   0.1905 0.1905 0.0000  plane waves:    5297
 k-point 40 :   0.1667 0.1667 0.0000  plane waves:    5313
 k-point 41 :   0.1429 0.1429 0.0000  plane waves:    5315
 k-point 42 :   0.1190 0.1190 0.0000  plane waves:    5313
 k-point 43 :   0.0952 0.0952 0.0000  plane waves:    5297
 k-point 44 :   0.0714 0.0714 0.0000  plane waves:    5301
 k-point 45 :   0.0476 0.0476 0.0000  plane waves:    5299
 k-point 46 :   0.0238 0.0238 0.0000  plane waves:    5303
 k-point 47 :   0.0000 0.0000 0.0000  plane waves:    5327
 k-point 48 :   0.0000 0.0000 0.0000  plane waves:    5327
 k-point 49 :   0.0000 0.0000 0.0333  plane waves:    5303
 k-point 50 :   0.0000 0.0000 0.0667  plane waves:    5309
 k-point 51 :   0.0000 0.0000 0.1000  plane waves:    5279
 k-point 52 :   0.0000 0.0000 0.1333  plane waves:    5292
 k-point 53 :   0.0000 0.0000 0.1667  plane waves:    5304
 k-point 54 :   0.0000 0.0000 0.2000  plane waves:    5292
 k-point 55 :   0.0000 0.0000 0.2333  plane waves:    5274
 k-point 56 :   0.0000 0.0000 0.2667  plane waves:    5304
 k-point 57 :   0.0000 0.0000 0.3000  plane waves:    5304
 k-point 58 :   0.0000 0.0000 0.3333  plane waves:    5316
 k-point 59 :   0.0000 0.0000 0.3667  plane waves:    5298
 k-point 60 :   0.0000 0.0000 0.4000  plane waves:    5298
 k-point 61 :   0.0000 0.0000 0.4333  plane waves:    5298
 k-point 62 :   0.0000 0.0000 0.4667  plane waves:    5304
 k-point 63 :   0.0000 0.0000 0.5000  plane waves:    5322
 k-point 64 :   0.0000 0.0000 0.5000  plane waves:    5322
 k-point 65 :   0.0417 0.0000 0.5000  plane waves:    5316
 k-point 66 :   0.0833 0.0000 0.5000  plane waves:    5310
 k-point 67 :   0.1250 0.0000 0.5000  plane waves:    5288
 k-point 68 :   0.1667 0.0000 0.5000  plane waves:    5292
 k-point 69 :   0.2083 0.0000 0.5000  plane waves:    5310
 k-point 70 :   0.2500 0.0000 0.5000  plane waves:    5300
 k-point 71 :   0.2917 0.0000 0.5000  plane waves:    5318
 k-point 72 :   0.3333 0.0000 0.5000  plane waves:    5320
 k-point 73 :   0.3750 0.0000 0.5000  plane waves:    5324
 k-point 74 :   0.4167 0.0000 0.5000  plane waves:    5326
 k-point 75 :   0.4583 0.0000 0.5000  plane waves:    5328
 k-point 76 :   0.5000 0.0000 0.5000  plane waves:    5348
 k-point 77 :   0.5000 0.0000 0.5000  plane waves:    5348
 k-point 78 :   0.4722 0.0556 0.5000  plane waves:    5340
 k-point 79 :   0.4444 0.1111 0.5000  plane waves:    5342
 k-point 80 :   0.4167 0.1667 0.5000  plane waves:    5348
 k-point 81 :   0.3889 0.2222 0.5000  plane waves:    5354
 k-point 82 :   0.3611 0.2778 0.5000  plane waves:    5344
 k-point 83 :   0.3333 0.3333 0.5000  plane waves:    5316
 k-point 84 :   0.3333 0.3333 0.5000  plane waves:    5316
 k-point 85 :   0.3095 0.3095 0.5000  plane waves:    5334
 k-point 86 :   0.2857 0.2857 0.5000  plane waves:    5342
 k-point 87 :   0.2619 0.2619 0.5000  plane waves:    5338
 k-point 88 :   0.2381 0.2381 0.5000  plane waves:    5326
 k-point 89 :   0.2143 0.2143 0.5000  plane waves:    5334
 k-point 90 :   0.1905 0.1905 0.5000  plane waves:    5310
 k-point 91 :   0.1667 0.1667 0.5000  plane waves:    5298
 k-point 92 :   0.1429 0.1429 0.5000  plane waves:    5294
 k-point 93 :   0.1190 0.1190 0.5000  plane waves:    5294
 k-point 94 :   0.0952 0.0952 0.5000  plane waves:    5292
 k-point 95 :   0.0714 0.0714 0.5000  plane waves:    5292
 k-point 96 :   0.0476 0.0476 0.5000  plane waves:    5304
 k-point 97 :   0.0238 0.0238 0.5000  plane waves:    5314
 k-point 98 :   0.0000 0.0000 0.5000  plane waves:    5322
 k-point 99 :   0.5000 0.0000 0.5000  plane waves:    5348
 k-point ** :   0.5000 0.0000 0.4667  plane waves:    5328
 k-point ** :   0.5000 0.0000 0.4333  plane waves:    5332
 k-point ** :   0.5000 0.0000 0.4000  plane waves:    5324
 k-point ** :   0.5000 0.0000 0.3667  plane waves:    5316
 k-point ** :   0.5000 0.0000 0.3333  plane waves:    5310
 k-point ** :   0.5000 0.0000 0.3000  plane waves:    5312
 k-point ** :   0.5000 0.0000 0.2667  plane waves:    5324
 k-point ** :   0.5000 0.0000 0.2333  plane waves:    5328
 k-point ** :   0.5000 0.0000 0.2000  plane waves:    5328
 k-point ** :   0.5000 0.0000 0.1667  plane waves:    5318
 k-point ** :   0.5000 0.0000 0.1333  plane waves:    5318
 k-point ** :   0.5000 0.0000 0.1000  plane waves:    5324
 k-point ** :   0.5000 0.0000 0.0667  plane waves:    5312
 k-point ** :   0.5000 0.0000 0.0333  plane waves:    5298
 k-point ** :   0.5000 0.0000 0.0000  plane waves:    5290
 k-point ** :   0.3333 0.3333 0.5000  plane waves:    5316
 k-point ** :   0.3333 0.3333 0.4667  plane waves:    5325
 k-point ** :   0.3333 0.3333 0.4333  plane waves:    5334
 k-point ** :   0.3333 0.3333 0.4000  plane waves:    5346
 k-point ** :   0.3333 0.3333 0.3667  plane waves:    5328
 k-point ** :   0.3333 0.3333 0.3333  plane waves:    5328
 k-point ** :   0.3333 0.3333 0.3000  plane waves:    5319
 k-point ** :   0.3333 0.3333 0.2667  plane waves:    5286
 k-point ** :   0.3333 0.3333 0.2333  plane waves:    5313
 k-point ** :   0.3333 0.3333 0.2000  plane waves:    5307
 k-point ** :   0.3333 0.3333 0.1667  plane waves:    5319
 k-point ** :   0.3333 0.3333 0.1333  plane waves:    5322
 k-point ** :   0.3333 0.3333 0.1000  plane waves:    5316
 k-point ** :   0.3333 0.3333 0.0667  plane waves:    5316
 k-point ** :   0.3333 0.3333 0.0333  plane waves:    5313
 k-point ** :   0.3333 0.3333 0.0000  plane waves:    5319

 maximum and minimum number of plane-waves per node :       706      630

 maximum number of plane-waves:      5354
 maximum index in each direction: 
   IXMAX=   12   IYMAX=   12   IZMAX=    8
   IXMIN=  -13   IYMIN=  -13   IZMIN=   -9


 parallel 3D FFT for wavefunctions:
    minimum data exchange during FFTs selected (reduces bandwidth)
 parallel 3D FFT for charge:
    minimum data exchange during FFTs selected (reduces bandwidth)


 FFT grid for exact exchange (Hartree Fock) 
  NGX = 40; NGY = 40; NGZ = 28

 
 Radii for the augmentation spheres in the non-local exchange
 for species   1 augmentation radius   1.263 (default was   1.010)
       energy cutoff for augmentation   2080.0
 for species   2 augmentation radius   1.237 (default was   0.989)
       energy cutoff for augmentation   2080.0

 real space projection operators:
  total allocation   :       4506.05 KBytes
  max/ min on nodes  :        595.53        529.89

 Maximum index for augmentation-charges in exchange          248
  SETUP_FOCK is finished

 total amount of memory used by VASP MPI-rank0   149157. kBytes
=======================================================================

   base      :      30000. kBytes
   nonl-proj :      27141. kBytes
   fftplans  :       2960. kBytes
   grid      :       2372. kBytes
   one-center:         62. kBytes
   HF        :         64. kBytes
   nonlr-proj:       1196. kBytes
   wavefun   :      85362. kBytes
 
     INWAV:  cpu time    6.3261: real time    6.3719
 initial charge density was supplied:
 number of electron     104.0000003 magnetization      22.5458770
 keeping initial charge density in first step


--------------------------------------------------------------------------------------------------------


 Maximum index for augmentation-charges         4747 (set IRDMAX)


--------------------------------------------------------------------------------------------------------


 First call to EWALD:  gamma=   0.304
 Maximum number of real-space cells 3x 3x 3
 Maximum number of reciprocal cells 3x 3x 2

    FEWALD:  cpu time    0.0016: real time    0.0016


--------------------------------------- Iteration      1(   1)  ---------------------------------------


    POTLOK:  cpu time    0.0779: real time    0.0828
    SETDIJ:  cpu time    0.1533: real time    0.1533
    TRIAL :  cpu time 3436.8193: real time 3437.3202
    CORREC:  cpu time    0.0035: real time    0.0035
    --------------------------------------------
      LOOP:  cpu time 3437.0905: real time 3437.5976

 eigenvalue-minimisations  :     0
 total energy-change (2. order) :-0.1534173E+03  (-0.1848302E+01)
 number of electron     104.0000003 magnetization      22.5458770
 augmentation part      104.0000003 magnetization      22.5458770

 Free energy of the ion-electron system (eV)
  ---------------------------------------------------
  alpha Z        PSCENC =       481.89030012
  Ewald energy   TEWEN  =     -6366.53181229
  -Hartree energ DENC   =     -1297.75249062
  -exchange      EXHF   =       200.47915933
  -V(xc)+E(xc)   XCENC  =       -13.22340065
  PAW double counting   =      9962.30264190    -9967.70749385
  entropy T*S    EENTRO =        -0.00352084
  eigenvalues    EBANDS =       354.04188358
  atomic energy  EATOM  =      6493.08691223
  ---------------------------------------------------
  free energy    TOTEN  =      -153.41727899 eV

  energy without entropy =     -153.41375815  energy(sigma->0) =     -153.41551857
  exchange ACFDT corr.  =        -0.00098437  see jH, gK, PRB 81, 115126


--------------------------------------------------------------------------------------------------------




--------------------------------------- Iteration      1(   2)  ---------------------------------------


    TRIAL :  cpu time 3438.1614: real time 3439.7831
    CORREC:  cpu time    0.0039: real time    0.0041
    --------------------------------------------
      LOOP:  cpu time 3438.1731: real time 3439.8044

 eigenvalue-minimisations  :     0
 total energy-change (2. order) :-0.1173756E+01  (-0.4582083E+00)
 number of electron     104.0000003 magnetization      22.5458770
 augmentation part      104.0000003 magnetization      22.5458770

 Free energy of the ion-electron system (eV)
  ---------------------------------------------------
  alpha Z        PSCENC =       481.89030012
  Ewald energy   TEWEN  =     -6366.53181229
  -Hartree energ DENC   =     -1297.75249062
  -exchange      EXHF   =       200.76130506
  -V(xc)+E(xc)   XCENC  =       -13.22340065
  PAW double counting   =      9962.30264190    -9967.70749385
  entropy T*S    EENTRO =        -0.00250925
  eigenvalues    EBANDS =       352.58652349
  atomic energy  EATOM  =      6493.08691223
  ---------------------------------------------------
  free energy    TOTEN  =      -154.59103545 eV

  energy without entropy =     -154.58852620  energy(sigma->0) =     -154.58978082
  exchange ACFDT corr.  =        -0.00158677  see jH, gK, PRB 81, 115126


--------------------------------------------------------------------------------------------------------




--------------------------------------- Iteration      1(   3)  ---------------------------------------


    TRIAL :  cpu time 3430.8977: real time 3431.3398
    CORREC:  cpu time    0.0036: real time    0.0038
    --------------------------------------------
      LOOP:  cpu time 3430.9055: real time 3431.4455

 eigenvalue-minimisations  :     0
 total energy-change (2. order) :-0.2224338E+00  (-0.2535937E+00)
 number of electron     104.0000003 magnetization      22.5458770
 augmentation part      104.0000003 magnetization      22.5458770

 Free energy of the ion-electron system (eV)
  ---------------------------------------------------
  alpha Z        PSCENC =       481.89030012
  Ewald energy   TEWEN  =     -6366.53181229
  -Hartree energ DENC   =     -1297.75249062
  -exchange      EXHF   =       200.55899281
  -V(xc)+E(xc)   XCENC  =       -13.22340065
  PAW double counting   =      9962.30264190    -9967.70749385
  entropy T*S    EENTRO =        -0.00269743
  eigenvalues    EBANDS =       352.56539034
  atomic energy  EATOM  =      6493.08691223
  ---------------------------------------------------
  free energy    TOTEN  =      -154.81346927 eV

  energy without entropy =     -154.81077184  energy(sigma->0) =     -154.81212056
  exchange ACFDT corr.  =        -0.00084407  see jH, gK, PRB 81, 115126


--------------------------------------------------------------------------------------------------------




--------------------------------------- Iteration      1(   4)  ---------------------------------------


    TRIAL :  cpu time 3432.5076: real time 3432.9618
    CORREC:  cpu time    0.0036: real time    0.0038
    --------------------------------------------
      LOOP:  cpu time 3432.5161: real time 3432.9723

 eigenvalue-minimisations  :     0
 total energy-change (2. order) :-0.2013838E+00  (-0.1837714E+00)
 number of electron     104.0000003 magnetization      22.5458770
 augmentation part      104.0000003 magnetization      22.5458770

 Free energy of the ion-electron system (eV)
  ---------------------------------------------------
  alpha Z        PSCENC =       481.89030012
  Ewald energy   TEWEN  =     -6366.53181229
  -Hartree energ DENC   =     -1297.75249062
  -exchange      EXHF   =       199.92058637
  -V(xc)+E(xc)   XCENC  =       -13.22340065
  PAW double counting   =      9962.30264190    -9967.70749385
  entropy T*S    EENTRO =        -0.00278817
  eigenvalues    EBANDS =       353.00260120
  atomic energy  EATOM  =      6493.08691223
  ---------------------------------------------------
  free energy    TOTEN  =      -155.01485302 eV

  energy without entropy =     -155.01206485  energy(sigma->0) =     -155.01345894
  exchange ACFDT corr.  =        -0.00083704  see jH, gK, PRB 81, 115126


--------------------------------------------------------------------------------------------------------




--------------------------------------- Iteration      1(   5)  ---------------------------------------


    TRIAL :  cpu time 3429.4896: real time 3429.9205
    CORREC:  cpu time    0.0035: real time    0.0039
    --------------------------------------------
      LOOP:  cpu time 3429.4950: real time 3429.9291

 eigenvalue-minimisations  :     0
 total energy-change (2. order) :-0.1241638E+00  (-0.7446354E-01)
 number of electron     104.0000003 magnetization      22.5458770
 augmentation part      104.0000003 magnetization      22.5458770

 Free energy of the ion-electron system (eV)
  ---------------------------------------------------
  alpha Z        PSCENC =       481.89030012
  Ewald energy   TEWEN  =     -6366.53181229
  -Hartree energ DENC   =     -1297.75249062
  -exchange      EXHF   =       199.26052990
  -V(xc)+E(xc)   XCENC  =       -13.22340065
  PAW double counting   =      9962.30264190    -9967.70749385
  entropy T*S    EENTRO =        -0.00274739
  eigenvalues    EBANDS =       353.53858462
  atomic energy  EATOM  =      6493.08691223
  ---------------------------------------------------
  free energy    TOTEN  =      -155.13901681 eV

  energy without entropy =     -155.13626942  energy(sigma->0) =     -155.13764312
  exchange ACFDT corr.  =        -0.00085402  see jH, gK, PRB 81, 115126


--------------------------------------------------------------------------------------------------------




--------------------------------------- Iteration      1(   6)  ---------------------------------------


    TRIAL :  cpu time 3432.4560: real time 3432.9030
    CORREC:  cpu time    0.0037: real time    0.0039
    --------------------------------------------
      LOOP:  cpu time 3432.4641: real time 3432.9149

 eigenvalue-minimisations  :     0
 total energy-change (2. order) :-0.6216979E-01  (-0.6009355E-01)
 number of electron     104.0000003 magnetization      22.5458770
 augmentation part      104.0000003 magnetization      22.5458770

 Free energy of the ion-electron system (eV)
  ---------------------------------------------------
  alpha Z        PSCENC =       481.89030012
  Ewald energy   TEWEN  =     -6366.53181229
  -Hartree energ DENC   =     -1297.75249062
  -exchange      EXHF   =       198.89629213
  -V(xc)+E(xc)   XCENC  =       -13.22340065
  PAW double counting   =      9962.30264190    -9967.70749385
  entropy T*S    EENTRO =        -0.00267412
  eigenvalues    EBANDS =       353.84061183
  atomic energy  EATOM  =      6493.08691223
  ---------------------------------------------------
  free energy    TOTEN  =      -155.20118660 eV

  energy without entropy =     -155.19851248  energy(sigma->0) =     -155.19984954
  exchange ACFDT corr.  =        -0.00084413  see jH, gK, PRB 81, 115126


--------------------------------------------------------------------------------------------------------




--------------------------------------- Iteration      1(   7)  ---------------------------------------


    TRIAL :  cpu time 3421.3476: real time 3421.7839
    CORREC:  cpu time    0.0039: real time    0.0040
    --------------------------------------------
      LOOP:  cpu time 3421.3549: real time 3421.7946

 eigenvalue-minimisations  :     0
 total energy-change (2. order) :-0.5230864E-01  (-0.4059666E-01)
 number of electron     104.0000003 magnetization      22.5458770
 augmentation part      104.0000003 magnetization      22.5458770

 Free energy of the ion-electron system (eV)
  ---------------------------------------------------
  alpha Z        PSCENC =       481.89030012
  Ewald energy   TEWEN  =     -6366.53181229
  -Hartree energ DENC   =     -1297.75249062
  -exchange      EXHF   =       198.74503178
  -V(xc)+E(xc)   XCENC  =       -13.22340065
  PAW double counting   =      9962.30264190    -9967.70749385
  entropy T*S    EENTRO =        -0.00262075
  eigenvalues    EBANDS =       353.93949026
  atomic energy  EATOM  =      6493.08691223
  ---------------------------------------------------
  free energy    TOTEN  =      -155.25349524 eV

  energy without entropy =     -155.25087449  energy(sigma->0) =     -155.25218486
  exchange ACFDT corr.  =        -0.00082820  see jH, gK, PRB 81, 115126


--------------------------------------------------------------------------------------------------------




--------------------------------------- Iteration      1(   8)  ---------------------------------------


    TRIAL :  cpu time 3416.2246: real time 3416.6542
    CORREC:  cpu time    0.0038: real time    0.0039
    --------------------------------------------
      LOOP:  cpu time 3416.2316: real time 3416.6633

 eigenvalue-minimisations  :     0
 total energy-change (2. order) :-0.3574873E-01  (-0.2846400E-01)
 number of electron     104.0000003 magnetization      22.5458770
 augmentation part      104.0000003 magnetization      22.5458770

 Free energy of the ion-electron system (eV)
  ---------------------------------------------------
  alpha Z        PSCENC =       481.89030012
  Ewald energy   TEWEN  =     -6366.53181229
  -Hartree energ DENC   =     -1297.75249062
  -exchange      EXHF   =       198.64547099
  -V(xc)+E(xc)   XCENC  =       -13.22340065
  PAW double counting   =      9962.30264190    -9967.70749385
  entropy T*S    EENTRO =        -0.00260372
  eigenvalues    EBANDS =       354.00324896
  atomic energy  EATOM  =      6493.08691223
  ---------------------------------------------------
  free energy    TOTEN  =      -155.28924397 eV

  energy without entropy =     -155.28664025  energy(sigma->0) =     -155.28794211
  exchange ACFDT corr.  =        -0.00081821  see jH, gK, PRB 81, 115126


--------------------------------------------------------------------------------------------------------




--------------------------------------- Iteration      1(   9)  ---------------------------------------


    TRIAL :  cpu time 3418.2950: real time 3418.7785
    CORREC:  cpu time    0.0035: real time    0.0035
    --------------------------------------------
      LOOP:  cpu time 3418.3001: real time 3418.7865

 eigenvalue-minimisations  :     0
 total energy-change (2. order) :-0.2617252E-01  (-0.2192392E-01)
 number of electron     104.0000003 magnetization      22.5458770
 augmentation part      104.0000003 magnetization      22.5458770

 Free energy of the ion-electron system (eV)
  ---------------------------------------------------
  alpha Z        PSCENC =       481.89030012
  Ewald energy   TEWEN  =     -6366.53181229
  -Hartree energ DENC   =     -1297.75249062
  -exchange      EXHF   =       198.53429297
  -V(xc)+E(xc)   XCENC  =       -13.22340065
  PAW double counting   =      9962.30264190    -9967.70749385
  entropy T*S    EENTRO =        -0.00262416
  eigenvalues    EBANDS =       354.08823742
  atomic energy  EATOM  =      6493.08691223
  ---------------------------------------------------
  free energy    TOTEN  =      -155.31541649 eV

  energy without entropy =     -155.31279234  energy(sigma->0) =     -155.31410442
  exchange ACFDT corr.  =        -0.00081743  see jH, gK, PRB 81, 115126


--------------------------------------------------------------------------------------------------------




--------------------------------------- Iteration      1(  10)  ---------------------------------------


    TRIAL :  cpu time 3415.5148: real time 3415.9753
    CORREC:  cpu time    0.0036: real time    0.0039
    --------------------------------------------
      LOOP:  cpu time 3415.5192: real time 3415.9811

 eigenvalue-minimisations  :     0
 total energy-change (2. order) :-0.2033378E-01  (-0.1684643E-01)
 number of electron     104.0000003 magnetization      22.5458770
 augmentation part      104.0000003 magnetization      22.5458770

 Free energy of the ion-electron system (eV)
  ---------------------------------------------------
  alpha Z        PSCENC =       481.89030012
  Ewald energy   TEWEN  =     -6366.53181229
  -Hartree energ DENC   =     -1297.75249062
  -exchange      EXHF   =       198.41558897
  -V(xc)+E(xc)   XCENC  =       -13.22340065
  PAW double counting   =      9962.30264190    -9967.70749385
  entropy T*S    EENTRO =        -0.00268033
  eigenvalues    EBANDS =       354.18662808
  atomic energy  EATOM  =      6493.08691223
  ---------------------------------------------------
  free energy    TOTEN  =      -155.33575027 eV

  energy without entropy =     -155.33306994  energy(sigma->0) =     -155.33441011
  exchange ACFDT corr.  =        -0.00082600  see jH, gK, PRB 81, 115126


--------------------------------------------------------------------------------------------------------




--------------------------------------- Iteration      1(  11)  ---------------------------------------


    TRIAL :  cpu time 3420.5351: real time 3420.9659
    CORREC:  cpu time    0.0037: real time    0.0040
    --------------------------------------------
      LOOP:  cpu time 3420.5434: real time 3420.9773

 eigenvalue-minimisations  :     0
 total energy-change (2. order) :-0.1574439E-01  (-0.1314294E-01)
 number of electron     104.0000003 magnetization      22.5458770
 augmentation part      104.0000003 magnetization      22.5458770

[...]
     26       5.8073      1.00000
     27       5.8073      1.00000
     28       6.3957      1.00000
     29       6.3957      1.00000
     30       6.7118      1.00000
     31       6.8189      1.00000
     32       7.0752      1.00000
     33       7.0752      1.00000
     34       7.1146      1.00000
     35       7.1237      1.00000
     36       7.2653      1.00000
     37       7.2653      1.00000
     38       7.2998      1.00000
     39       7.7348      1.00000
     40       7.9016      1.00000
     41       7.9016      1.00000
     42       9.1729      0.00000
     43       9.2688      0.00000
     44       9.2688      0.00000
     45       9.3078      0.00000
     46       9.3078      0.00000
     47      10.2347      0.00000
     48      10.2347      0.00000
     49      10.4026      0.00000
     50      10.4026      0.00000
     51      10.5522      0.00000
     52      10.6412      0.00000
     53      10.6412      0.00000
     54      11.1515      0.00000
     55      11.2299      0.00000
     56      11.4466      0.00000
     57      11.4553      0.00000
     58      11.4553      0.00000
     59      11.5081      0.00000
     60      11.6288      0.00000
     61      11.6288      0.00000
     62      11.6319      0.00000
     63      11.8572      0.00000
     64      11.8581      0.00000
     65      11.9227      0.00000
     66      11.9227      0.00000
     67      12.1545      0.00000
     68      12.1545      0.00000
     69      12.5317      0.00000
     70      13.4882      0.00000
     71      13.4888      0.00000
     72      14.2281      0.00000


--------------------------------------------------------------------------------------------------------


 soft charge-density along one line, spin component           1
         0         1         2         3         4         5         6         7         8         9
 total charge-density along one line
 
 soft charge-density along one line, spin component           2
         0         1         2         3         4         5         6         7         8         9
 total charge-density along one line
 
 pseudopotential strength for first ion, spin component:           1
 -2.523  -0.000  -0.011   0.000   0.060  -3.163  -0.000  -0.011
 -0.000  -2.879   0.000   0.006  -0.000  -0.000  -3.511   0.000
 -0.011   0.000  -2.831  -0.000  -0.006  -0.011   0.000  -3.461
  0.000   0.006  -0.000  -2.873   0.000   0.000   0.005  -0.000
  0.060  -0.000  -0.006   0.000  -2.593   0.060  -0.000  -0.006
 -3.163  -0.000  -0.011   0.000   0.060  -3.759  -0.000  -0.010
 -0.000  -3.511   0.000   0.005  -0.000  -0.000  -4.099   0.000
 -0.011   0.000  -3.461  -0.000  -0.006  -0.010   0.000  -4.048
  0.000   0.005  -0.000  -3.505   0.000   0.000   0.005  -0.000
  0.060  -0.000  -0.006   0.000  -3.233   0.060  -0.000  -0.006
 -0.004  -0.000   0.051  -0.000  -0.002  -0.004  -0.000   0.050
 -0.008  -0.000   0.095  -0.000  -0.005  -0.008  -0.000   0.093
 -0.007  -0.000  -0.005   0.000  -0.009  -0.007  -0.000  -0.005
  0.000   0.010   0.000  -0.006   0.000   0.000   0.010   0.000
  0.009   0.000   0.003   0.000  -0.004   0.010   0.000   0.003
 -0.007  -0.000  -0.005   0.000  -0.010  -0.007  -0.000  -0.006
  0.000   0.011   0.000  -0.006   0.000   0.000   0.011   0.000
  0.010   0.000   0.003   0.000  -0.005   0.010   0.000   0.003
 pseudopotential strength for first ion, spin component:           2
 -0.884  -0.000   0.022   0.000  -0.114  -1.582  -0.000   0.021
 -0.000  -0.795  -0.000  -0.007  -0.000  -0.000  -1.493  -0.000
  0.022  -0.000  -1.081  -0.000   0.013   0.021  -0.000  -1.777
  0.000  -0.007  -0.000  -0.803   0.000   0.000  -0.006  -0.000
 -0.114  -0.000   0.013   0.000  -0.752  -0.113  -0.000   0.012
 -1.582  -0.000   0.021   0.000  -0.113  -2.233  -0.000   0.021
 -0.000  -1.493  -0.000  -0.006  -0.000  -0.000  -2.144  -0.000
  0.021  -0.000  -1.777  -0.000   0.012   0.021  -0.000  -2.425
  0.000  -0.006  -0.000  -1.500   0.000   0.000  -0.006  -0.000
 -0.113  -0.000   0.012   0.000  -1.451  -0.112  -0.000   0.012
  0.008   0.000   0.002  -0.000   0.005   0.008   0.000   0.001
  0.015   0.000   0.002  -0.000   0.009   0.015   0.000   0.001
 -0.006   0.000  -0.004   0.000  -0.008  -0.006   0.000  -0.004
  0.000   0.008   0.000  -0.005   0.000   0.000   0.009   0.000
  0.008   0.000   0.002   0.000  -0.003   0.008   0.000   0.002
 -0.006   0.000  -0.004   0.000  -0.008  -0.006   0.000  -0.004
  0.000   0.009   0.000  -0.005   0.000   0.000   0.009   0.000
  0.008   0.000   0.003   0.000  -0.004   0.008   0.000   0.003
 total augmentation occupancy for first ion, spin component:           1
  1.400   0.000   0.000   0.000   0.000   0.000   0.000   0.000   0.000   0.000   0.000   0.000   0.000   0.000   0.000   0.000
  0.000   1.400   0.000   0.000   0.000   0.000   0.000   0.000   0.000   0.000   0.000   0.000   0.000   0.000   0.000   0.000
  0.000   0.000   1.400   0.000   0.000   0.000   0.000   0.000   0.000   0.000   0.000   0.000   0.000   0.000   0.000   0.000
  0.000   0.000   0.000   1.400   0.000   0.000   0.000   0.000   0.000   0.000   0.000   0.000   0.000   0.000   0.000   0.000
  0.000   0.000   0.000   0.000   1.400   0.000   0.000   0.000   0.000   0.000   0.000   0.000   0.000   0.000   0.000   0.000
  0.000   0.000   0.000   0.000   0.000   0.000   0.000   0.000   0.000   0.000   0.000   0.000   0.000   0.000   0.000   0.000
  0.000   0.000   0.000   0.000   0.000   0.000   0.000   0.000   0.000   0.000   0.000   0.000   0.000   0.000   0.000   0.000
  0.000   0.000   0.000   0.000   0.000   0.000   0.000   0.000   0.000   0.000   0.000   0.000   0.000   0.000   0.000   0.000
  0.000   0.000   0.000   0.000   0.000   0.000   0.000   0.000   0.000   0.000   0.000   0.000   0.000   0.000   0.000   0.000
  0.000   0.000   0.000   0.000   0.000   0.000   0.000   0.000   0.000   0.000   0.000   0.000   0.000   0.000   0.000   0.000
  0.000   0.000   0.000   0.000   0.000   0.000   0.000   0.000   0.000   0.000   1.000   0.000   0.000   0.000   0.000   0.000
  0.000   0.000   0.000   0.000   0.000   0.000   0.000   0.000   0.000   0.000   0.000   0.000   0.000   0.000   0.000   0.000
  0.000   0.000   0.000   0.000   0.000   0.000   0.000   0.000   0.000   0.000   0.000   0.000   0.000   0.000   0.000   0.000
  0.000   0.000   0.000   0.000   0.000   0.000   0.000   0.000   0.000   0.000   0.000   0.000   0.000   0.000   0.000   0.000
  0.000   0.000   0.000   0.000   0.000   0.000   0.000   0.000   0.000   0.000   0.000   0.000   0.000   0.000   0.000   0.000
  0.000   0.000   0.000   0.000   0.000   0.000   0.000   0.000   0.000   0.000   0.000   0.000   0.000   0.000   0.000   0.000
  0.000   0.000   0.000   0.000   0.000   0.000   0.000   0.000   0.000   0.000   0.000   0.000   0.000   0.000   0.000   0.000
  0.000   0.000   0.000   0.000   0.000   0.000   0.000   0.000   0.000   0.000   0.000   0.000   0.000   0.000   0.000   0.000
 total augmentation occupancy for first ion, spin component:           2
  0.175   0.000   0.000   0.000   0.000   0.000   0.000   0.000   0.000   0.000   0.000   0.000   0.000   0.000   0.000   0.000
  0.000   0.175   0.000   0.000   0.000   0.000   0.000   0.000   0.000   0.000   0.000   0.000   0.000   0.000   0.000   0.000
  0.000   0.000   0.175   0.000   0.000   0.000   0.000   0.000   0.000   0.000   0.000   0.000   0.000   0.000   0.000   0.000
  0.000   0.000   0.000   0.175   0.000   0.000   0.000   0.000   0.000   0.000   0.000   0.000   0.000   0.000   0.000   0.000
  0.000   0.000   0.000   0.000   0.175   0.000   0.000   0.000   0.000   0.000   0.000   0.000   0.000   0.000   0.000   0.000
  0.000   0.000   0.000   0.000   0.000   0.000   0.000   0.000   0.000   0.000   0.000   0.000   0.000   0.000   0.000   0.000
  0.000   0.000   0.000   0.000   0.000   0.000   0.000   0.000   0.000   0.000   0.000   0.000   0.000   0.000   0.000   0.000
  0.000   0.000   0.000   0.000   0.000   0.000   0.000   0.000   0.000   0.000   0.000   0.000   0.000   0.000   0.000   0.000
  0.000   0.000   0.000   0.000   0.000   0.000   0.000   0.000   0.000   0.000   0.000   0.000   0.000   0.000   0.000   0.000
  0.000   0.000   0.000   0.000   0.000   0.000   0.000   0.000   0.000   0.000   0.000   0.000   0.000   0.000   0.000   0.000
  0.000   0.000   0.000   0.000   0.000   0.000   0.000   0.000   0.000   0.000   0.125   0.000   0.000   0.000   0.000   0.000
  0.000   0.000   0.000   0.000   0.000   0.000   0.000   0.000   0.000   0.000   0.000   0.000   0.000   0.000   0.000   0.000
  0.000   0.000   0.000   0.000   0.000   0.000   0.000   0.000   0.000   0.000   0.000   0.000   0.000   0.000   0.000   0.000
  0.000   0.000   0.000   0.000   0.000   0.000   0.000   0.000   0.000   0.000   0.000   0.000   0.000   0.000   0.000   0.000
  0.000   0.000   0.000   0.000   0.000   0.000   0.000   0.000   0.000   0.000   0.000   0.000   0.000   0.000   0.000   0.000
  0.000   0.000   0.000   0.000   0.000   0.000   0.000   0.000   0.000   0.000   0.000   0.000   0.000   0.000   0.000   0.000
  0.000   0.000   0.000   0.000   0.000   0.000   0.000   0.000   0.000   0.000   0.000   0.000   0.000   0.000   0.000   0.000
  0.000   0.000   0.000   0.000   0.000   0.000   0.000   0.000   0.000   0.000   0.000   0.000   0.000   0.000   0.000   0.000


------------------------ aborting loop because EDIFF is reached ----------------------------------------


 


 total charge     
 
# of ion       s       p       d       tot
------------------------------------------
    1        0.372   0.490   6.263   7.124
    2        0.372   0.490   6.263   7.124
    3        0.371   0.486   6.297   7.154
    4        0.374   0.483   6.317   7.175
    5        0.450   0.623   6.233   7.306
    6        0.449   0.627   6.229   7.305
    7        0.450   0.623   6.233   7.306
    8        0.449   0.627   6.229   7.305
    9        0.371   0.486   6.297   7.154
   10        0.374   0.483   6.317   7.175
   11        0.749   0.938   0.000   1.686
   12        0.749   0.938   0.000   1.686
   13        0.747   0.934   0.000   1.681
   14        0.745   0.935   0.000   1.680
   15        0.747   0.934   0.000   1.681
   16        0.745   0.935   0.000   1.680
--------------------------------------------------
tot          8.514  11.029  62.679  82.222
 


 magnetization (x)
 
# of ion       s       p       d       tot
------------------------------------------
    1       -0.007  -0.022   2.698   2.669
    2       -0.007  -0.022   2.698   2.669
    3       -0.006  -0.026   2.672   2.640
    4       -0.002  -0.029   2.658   2.627
    5       -0.003  -0.039   2.270   2.228
    6       -0.004  -0.037   2.255   2.214
    7       -0.003  -0.039   2.270   2.228
    8       -0.004  -0.037   2.255   2.214
    9       -0.006  -0.026   2.672   2.640
   10       -0.002  -0.029   2.658   2.627
   11       -0.029  -0.112   0.000  -0.142
   12       -0.029  -0.112   0.000  -0.142
   13       -0.029  -0.116   0.000  -0.145
   14       -0.030  -0.115   0.000  -0.145
   15       -0.029  -0.116   0.000  -0.145
   16       -0.030  -0.115   0.000  -0.145
--------------------------------------------------
tot         -0.219  -0.993  25.105  23.893
 
    CHARGE:  cpu time    0.2676: real time    0.5165
    FORLOC:  cpu time    0.0015: real time    0.0015
    FORHF :  cpu time 6558.5866: real time 6559.7383
    FORNL :  cpu time    2.3655: real time    2.4031
    FORCOR:  cpu time    0.2288: real time    0.2318
    FORHAR:  cpu time    0.0031: real time    0.0031
    OFIELD:  cpu time    0.0005: real time    0.0005

 VOLUME and BASIS-vectors are now :
 -----------------------------------------------------------------------------
  energy-cutoff  :      520.00
  volume of cell :      197.35
      direct lattice vectors                 reciprocal lattice vectors
     6.910421036  0.000000000  0.000000000     0.144708983  0.083547770  0.000000000
    -3.455210518  5.984600168  0.000000000     0.000000000  0.167095541  0.000000000
     0.000000000  0.000000000  4.771882571     0.000000000  0.000000000  0.209560899

  length of vectors
     6.910421036  6.910421036  4.771882571     0.167095541  0.167095541  0.209560899


 FORCES acting on ions
    electron-ion (+dipol)            ewald-force                    non-local-force                 convergence-correction
 -----------------------------------------------------------------------------------------------
   -.406E+01 0.703E+01 -.194E-04   0.994E+01 -.172E+02 -.447E-15   -.143E+01 0.248E+01 0.867E-18   -.428E+01 0.741E+01 0.227E-04
   0.406E+01 -.703E+01 0.168E-04   -.994E+01 0.172E+02 0.115E-13   0.143E+01 -.248E+01 -.867E-18   0.428E+01 -.741E+01 -.211E-04
   0.812E+01 -.163E-03 -.182E-04   -.199E+02 0.714E-09 0.115E-14   0.287E+01 0.000E+00 -.325E-18   0.856E+01 0.807E-03 0.218E-04
   0.406E+01 0.703E+01 0.703E-05   -.994E+01 -.172E+02 0.147E-13   0.143E+01 0.248E+01 -.694E-17   0.428E+01 0.741E+01 -.142E-04
   -.349E-03 0.169E-03 0.884E-05   0.124E-08 -.711E-09 0.166E-11   -.651E-17 0.173E-17 -.867E-18   0.441E-02 -.253E-02 -.763E-05
   -.338E-03 0.161E-03 -.879E-05   0.124E-08 -.711E-09 -.167E-11   -.840E-17 0.867E-18 0.867E-18   0.441E-02 -.253E-02 0.759E-05
   0.348E-03 -.169E-03 -.927E-05   -.123E-08 0.717E-09 0.170E-11   0.954E-17 -.173E-17 0.867E-18   -.441E-02 0.253E-02 0.799E-05
   0.339E-03 -.162E-03 0.936E-05   -.123E-08 0.717E-09 -.171E-11   0.409E-17 -.867E-18 -.867E-18   -.441E-02 0.253E-02 -.803E-05
   -.812E+01 0.163E-03 0.166E-04   0.199E+02 -.710E-09 0.365E-14   -.287E+01 0.000E+00 -.314E-17   -.856E+01 -.807E-03 -.209E-04
   -.406E+01 -.703E+01 -.934E-05   0.994E+01 0.172E+02 -.351E-14   -.143E+01 -.248E+01 -.347E-17   -.428E+01 -.741E+01 0.155E-04
   0.116E-01 -.202E-01 0.368E-04   0.228E+01 -.395E+01 -.290E-15   -.423E+00 0.732E+00 0.173E-17   -.154E+01 0.267E+01 -.332E-04
   -.116E-01 0.202E-01 -.366E-04   -.228E+01 0.395E+01 -.491E-14   0.423E+00 -.732E+00 0.191E-16   0.154E+01 -.267E+01 0.331E-04
   -.233E-01 -.852E-04 0.347E-04   -.456E+01 0.345E-09 0.733E-14   0.846E+00 0.347E-17 0.694E-17   0.308E+01 0.295E-03 -.326E-04
   -.117E-01 -.203E-01 -.250E-04   -.228E+01 -.395E+01 0.203E-14   0.423E+00 0.732E+00 0.139E-16   0.154E+01 0.267E+01 0.290E-04
   0.233E-01 0.857E-04 -.350E-04   0.456E+01 -.347E-09 -.369E-14   -.846E+00 -.173E-17 -.347E-17   -.308E+01 -.295E-03 0.327E-04
   0.117E-01 0.203E-01 0.248E-04   0.228E+01 0.395E+01 -.332E-14   -.423E+00 -.732E+00 0.347E-17   -.154E+01 -.267E+01 -.290E-04
 -----------------------------------------------------------------------------------------------
   0.160E-06 0.421E-06 -.673E-05   -.115E-13 0.329E-13 0.643E-14   -.555E-16 0.111E-15 0.278E-16   0.914E-08 0.357E-06 0.385E-05
 
 
 POSITION                                       TOTAL-FORCE (eV/Angst)
 -----------------------------------------------------------------------------------
     -0.80645      1.39681      3.57891         0.046585     -0.080687      0.000000
     -2.64876      4.58779      1.19297        -0.046585      0.080687      0.000000
      1.61289      0.00000      3.57891        -0.093169     -0.000000     -0.000000
      0.80645      1.39681      1.19297        -0.046585     -0.080687      0.000000
     -0.00000      3.98973      0.00000        -0.000000     -0.000000      0.000000
     -0.00000      3.98973      2.38594        -0.000000     -0.000000      0.000000
      3.45521      1.99487      0.00000        -0.000000     -0.000000      0.000000
      3.45521      1.99487      2.38594        -0.000000     -0.000000      0.000000
      5.29753      0.00000      1.19297         0.093169     -0.000000     -0.000000
      2.64876      4.58779      3.57891         0.046585      0.080687     -0.000000
     -1.38968      2.40700      1.19297         0.316556     -0.548290      0.000000
     -2.06553      3.57760      3.57891        -0.316556      0.548290      0.000000
      2.77937      0.00000      1.19297        -0.633111     -0.000000     -0.000000
      1.38968      2.40700      3.57891        -0.316556     -0.548290      0.000000
      4.13105      0.00000      3.57891         0.633111     -0.000000      0.000000
      2.06553      3.57760      1.19297         0.316556      0.548290      0.000000
 -----------------------------------------------------------------------------------
    total drift:                                0.000000      0.000001     -0.000003


--------------------------------------------------------------------------------------------------------



  FREE ENERGIE OF THE ION-ELECTRON SYSTEM (eV)
  ---------------------------------------------------
  free  energy   TOTEN  =      -155.41699580 eV

  energy  without entropy=     -155.41263981  energy(sigma->0) =     -155.41481780
 


--------------------------------------------------------------------------------------------------------


    POTLOK:  cpu time    0.2247: real time    0.3193


--------------------------------------------------------------------------------------------------------


     LOOP+:  cpu time**********: real time**********
    4ORBIT:  cpu time    0.0000: real time    0.0000
 


 total charge     
 
# of ion       s       p       d       tot
------------------------------------------
    1        0.372   0.490   6.263   7.124
    2        0.372   0.490   6.263   7.124
    3        0.371   0.486   6.297   7.154
    4        0.374   0.483   6.317   7.175
    5        0.450   0.623   6.233   7.306
    6        0.449   0.627   6.229   7.305
    7        0.450   0.623   6.233   7.306
    8        0.449   0.627   6.229   7.305
    9        0.371   0.486   6.297   7.154
   10        0.374   0.483   6.317   7.175
   11        0.749   0.938   0.000   1.686
   12        0.749   0.938   0.000   1.686
   13        0.747   0.934   0.000   1.681
   14        0.745   0.935   0.000   1.680
   15        0.747   0.934   0.000   1.681
   16        0.745   0.935   0.000   1.680
--------------------------------------------------
tot          8.514  11.029  62.679  82.222
 


 magnetization (x)
 
# of ion       s       p       d       tot
------------------------------------------
    1       -0.007  -0.022   2.698   2.669
    2       -0.007  -0.022   2.698   2.669
    3       -0.006  -0.026   2.672   2.640
    4       -0.002  -0.029   2.658   2.627
    5       -0.003  -0.039   2.270   2.228
    6       -0.004  -0.037   2.255   2.214
    7       -0.003  -0.039   2.270   2.228
    8       -0.004  -0.037   2.255   2.214
    9       -0.006  -0.026   2.672   2.640
   10       -0.002  -0.029   2.658   2.627
   11       -0.029  -0.112   0.000  -0.142
   12       -0.029  -0.112   0.000  -0.142
   13       -0.029  -0.116   0.000  -0.145
   14       -0.030  -0.115   0.000  -0.145
   15       -0.029  -0.116   0.000  -0.145
   16       -0.030  -0.115   0.000  -0.145
--------------------------------------------------
tot         -0.219  -0.993  25.105  23.893
 

 total amount of memory used by VASP MPI-rank0   150792. kBytes
=======================================================================

   base      :      30000. kBytes
   nonl-proj :      27141. kBytes
   fftplans  :       2960. kBytes
   grid      :       2372. kBytes
   one-center:         62. kBytes
   HF        :         64. kBytes
   nonlr-proj:       2831. kBytes
   wavefun   :      85362. kBytes
 
  
  
 General timing and accounting informations for this job:
 ========================================================
  
                  Total CPU time used (sec):   143449.609
                            User time (sec):   143438.203
                          System time (sec):       11.399
                         Elapsed time (sec):   143476.805
  
                   Maximum memory used (kb):      437452.
                   Average memory used (kb):           0.
  
                          Minor page faults:      6049448
                          Major page faults:         5555
                 Voluntary context switches:        10354
