 vasp.5.4.1 24Jun15 (build Nov 23 2015 09:58:10) complex                        
  
 executed on             LinuxIFC date 2022.11.11  22:52:17
 running on   48 total cores
 distrk:  each k-point on   48 cores,    1 groups
 distr:  one band on NCORES_PER_BAND=   8 cores,    6 groups


--------------------------------------------------------------------------------------------------------


 INCAR:
 POTCAR:    PAW_PBE K_sv 06Sep2000                
 POTCAR:    PAW_PBE Zn 06Sep2000                  
 POTCAR:    PAW_PBE As 22Sep2009                  
 POTCAR:    PAW_PBE K_sv 06Sep2000                
   VRHFIN =K:  3s3p4s                                                           
   LEXCH  = PE                                                                  
   EATOM  =   775.0067 eV,   56.9614 Ry                                         
                                                                                
   TITEL  = PAW_PBE K_sv 06Sep2000                                              
   LULTRA =        F    use ultrasoft PP ?                                      
   IUNSCR =        1    unscreen: 0-lin 1-nonlin 2-no                           
   RPACOR =    2.200    partial core radius                                     
   POMASS =   39.098; ZVAL   =    9.000    mass and valenz                      
   RCORE  =    2.300    outmost cutoff radius                                   
   RWIGS  =    3.000; RWIGS  =    1.588    wigner-seitz radius (au A)           
   ENMAX  =  259.264; ENMIN  =  194.448 eV                                      
   RCLOC  =    2.005    cutoff for local pot                                    
   LCOR   =        T    correct aug charges                                     
   LPAW   =        T    paw PP                                                  
   EAUG   =  427.853                                                            
   DEXC   =    0.000                                                            
   RMAX   =    2.358    core radius for proj-oper                               
   RAUG   =    1.300    factor for augmentation sphere                          
   RDEP   =    2.372    radius for radial grids                                 
   RDEPT  =    2.002    core radius for aug-charge                              
                                                                                
   Atomic configuration                                                         
    7 entries                                                                   
     n  l   j            E        occ.                                          
     1  0  0.50     -3522.0595   2.0000                                         
     2  0  0.50      -353.3851   2.0000                                         
     2  1  1.50      -280.0935   6.0000                                         
     3  0  0.50       -35.3419   2.0000                                         
     4  0  0.50        -2.3190   1.0000                                         
     3  1  1.50       -18.8125   6.0000                                         
     3  2  1.50        -1.3606   0.0000                                         
   Description                                                                  
     l       E           TYP  RCUT    TYP  RCUT                                 
     0    -35.3418873     23  2.300                                             
     0     -2.3190215     23  2.300                                             
     1    -18.8124623     23  2.300                                             
     1    -20.4087390     23  2.300                                             
     2     -1.3605826     23  2.300                                             
  local pseudopotential read in
  partial core-charges read in
  partial kinetic energy density read in
  atomic valenz-charges read in
  non local Contribution for L=           0  read in
    real space projection operators read in
  non local Contribution for L=           0  read in
    real space projection operators read in
  non local Contribution for L=           1  read in
    real space projection operators read in
  non local Contribution for L=           1  read in
    real space projection operators read in
  non local Contribution for L=           2  read in
    real space projection operators read in
    PAW grid and wavefunctions read in
 
   number of l-projection  operators is LMAX  =           5
   number of lm-projection operators is LMMAX =          13
 
 POTCAR:    PAW_PBE Zn 06Sep2000                  
   VRHFIN =Zn: d10 p2                                                           
   LEXCH  = PE                                                                  
   EATOM  =  1748.8345 eV,  128.5357 Ry                                         
                                                                                
   TITEL  = PAW_PBE Zn 06Sep2000                                                
   LULTRA =        F    use ultrasoft PP ?                                      
   IUNSCR =        1    unscreen: 0-lin 1-nonlin 2-no                           
   RPACOR =    2.000    partial core radius                                     
   POMASS =   65.390; ZVAL   =   12.000    mass and valenz                      
   RCORE  =    2.300    outmost cutoff radius                                   
   RWIGS  =    2.400; RWIGS  =    1.270    wigner-seitz radius (au A)           
   ENMAX  =  276.723; ENMIN  =  207.542 eV                                      
   RCLOC  =    1.828    cutoff for local pot                                    
   LCOR   =        T    correct aug charges                                     
   LPAW   =        T    paw PP                                                  
   EAUG   =  575.892                                                            
   DEXC   =    0.000                                                            
   RMAX   =    2.347    core radius for proj-oper                               
   RAUG   =    1.300    factor for augmentation sphere                          
   RDEP   =    2.324    radius for radial grids                                 
   RDEPT  =    1.788    core radius for aug-charge                              
                                                                                
   Atomic configuration                                                         
    9 entries                                                                   
     n  l   j            E        occ.                                          
     1  0  0.50     -9524.6913   2.0000                                         
     2  0  0.50     -1158.1882   2.0000                                         
     2  1  1.50     -1003.8506   6.0000                                         
     3  0  0.50      -129.2194   2.0000                                         
     3  1  1.50       -83.3890   6.0000                                         
     3  2  2.50       -10.1410  10.0000                                         
     4  0  0.50        -5.9785   2.0000                                         
     4  1  0.50        -4.0817   0.0000                                         
     4  3  2.50        -1.3606   0.0000                                         
   Description                                                                  
     l       E           TYP  RCUT    TYP  RCUT                                 
     2    -10.1410010     23  2.300                                             
     2    -11.5015836     23  2.300                                             
     0     -5.9785163     23  2.300                                             
     0      1.1858015     23  2.300                                             
     1     -2.7211652     23  2.300                                             
     1     13.2444212     23  2.300                                             
  local pseudopotential read in
  partial core-charges read in
  partial kinetic energy density read in
  atomic valenz-charges read in
  non local Contribution for L=           2  read in
    real space projection operators read in
  non local Contribution for L=           2  read in
    real space projection operators read in
  non local Contribution for L=           0  read in
    real space projection operators read in
  non local Contribution for L=           0  read in
    real space projection operators read in
  non local Contribution for L=           1  read in
    real space projection operators read in
  non local Contribution for L=           1  read in
    real space projection operators read in
    PAW grid and wavefunctions read in
 
   number of l-projection  operators is LMAX  =           6
   number of lm-projection operators is LMMAX =          18
 
 POTCAR:    PAW_PBE As 22Sep2009                  
   VRHFIN =As: s2p3                                                             
   LEXCH  = PE                                                                  
   EATOM  =   170.1867 eV,   12.5084 Ry                                         
                                                                                
   TITEL  = PAW_PBE As 22Sep2009                                                
   LULTRA =        F    use ultrasoft PP ?                                      
   IUNSCR =        1    unscreen: 0-lin 1-nonlin 2-no                           
   RPACOR =    1.900    partial core radius                                     
   POMASS =   74.922; ZVAL   =    5.000    mass and valenz                      
   RCORE  =    2.100    outmost cutoff radius                                   
   RWIGS  =    2.300; RWIGS  =    1.217    wigner-seitz radius (au A)           
   ENMAX  =  208.702; ENMIN  =  156.526 eV                                      
   ICORE  =        3    local potential                                         
   LCOR   =        T    correct aug charges                                     
   LPAW   =        T    paw PP                                                  
   EAUG   =  462.758                                                            
   DEXC   =    0.000                                                            
   RMAX   =    2.144    core radius for proj-oper                               
   RAUG   =    1.300    factor for augmentation sphere                          
   RDEP   =    2.140    radius for radial grids                                 
   RDEPT  =    1.956    core radius for aug-charge                              
                                                                                
   Atomic configuration                                                         
   10 entries                                                                   
     n  l   j            E        occ.                                          
     1  0  0.50    -11718.0418   2.0000                                         
     2  0  0.50     -1486.5454   2.0000                                         
     2  1  1.50     -1303.3889   6.0000                                         
     3  0  0.50      -190.2849   2.0000                                         
     3  1  1.50      -133.6555   6.0000                                         
     3  2  2.50       -40.6443  10.0000                                         
     4  0  0.50       -14.4936   2.0000                                         
     4  1  0.50        -5.1947   3.0000                                         
     4  2  1.50        -5.4423   0.0000                                         
     4  3  2.50        -5.4423   0.0000                                         
   Description                                                                  
     l       E           TYP  RCUT    TYP  RCUT                                 
     0    -14.4935570     23  2.100                                             
     0    -11.9212055     23  2.100                                             
     1     -5.1947127     23  2.100                                             
     1     27.2116520     23  2.100                                             
     2     -5.4423304     23  2.100                                             
     3     -1.3605826      7  2.100                                             
  local pseudopotential read in
  partial core-charges read in
  partial kinetic energy density read in
  atomic valenz-charges read in
  non local Contribution for L=           0  read in
    real space projection operators read in
  non local Contribution for L=           0  read in
    real space projection operators read in
  non local Contribution for L=           1  read in
    real space projection operators read in
  non local Contribution for L=           1  read in
    real space projection operators read in
  non local Contribution for L=           2  read in
    real space projection operators read in
    PAW grid and wavefunctions read in
 
   number of l-projection  operators is LMAX  =           5
   number of lm-projection operators is LMMAX =          13
 
  PAW_PBE K_sv 06Sep2000                :
 energy of atom  1       EATOM= -775.0067
 kinetic energy error for atom=    0.0014 (will be added to EATOM!!)
  PAW_PBE Zn 06Sep2000                  :
 energy of atom  2       EATOM=-1748.8345
 kinetic energy error for atom=    0.0029 (will be added to EATOM!!)
  PAW_PBE As 22Sep2009                  :
 energy of atom  3       EATOM= -170.1867
 kinetic energy error for atom=    0.0005 (will be added to EATOM!!)
 
 
 POSCAR: Primitive Cell                          
  positions in direct lattice
  No initial velocities read in
 exchange correlation table for  LEXCH =        8
   RHO(1)=    0.500       N(1)  =     2000
   RHO(2)=  100.500       N(2)  =     4000
 


--------------------------------------------------------------------------------------------------------


 ion  position               nearest neighbor table
   1  0.000  0.000  0.000-
   2  0.333  0.667  0.500-   3 2.45   3 2.45   3 2.45
   3  0.667  0.333  0.500-   2 2.45   2 2.45   2 2.45
 
  LATTYP: Found a hexagonal cell.
 ALAT       =     4.2360256502
 C/A-ratio  =     1.2502255214
  
  Lattice vectors:
  
 A1 = (   4.2360256502,   0.0000000000,   0.0000000000)
 A2 = (  -2.1180128251,   3.6685058242,   0.0000000000)
 A3 = (   0.0000000000,   0.0000000000,   5.2959873771)


Analysis of symmetry for initial positions (statically):
=====================================================================
 Subroutine PRICEL returns:
 Original cell was already a primitive cell.
 

 Routine SETGRP: Setting up the symmetry group for a 
 hexagonal supercell.


 Subroutine GETGRP returns: Found 12 space group operations
 (whereof 12 operations were pure point group operations)
 out of a pool of 24 trial point group operations.


The static configuration has the point symmetry D_3h.


Analysis of symmetry for dynamics (positions and initial velocities):
=====================================================================
 Subroutine PRICEL returns:
 Original cell was already a primitive cell.
 

 Routine SETGRP: Setting up the symmetry group for a 
 hexagonal supercell.


 Subroutine GETGRP returns: Found 12 space group operations
 (whereof 12 operations were pure point group operations)
 out of a pool of 24 trial point group operations.


The dynamic configuration has the point symmetry D_3h.


Analysis of magnetic symmetry:
=====================================================================
 Subroutine PRICEL returns:
 Original cell was already a primitive cell.
 

 Subroutine MAGSYM returns: Found 12 space group operations
 (whereof 12 operations were pure point group operations)
 out of a pool of 12 trial space group operations
 (whereof 12 operations were pure point group operations)
 and found also     1 'primitive' translations


The magnetic configuration has the point symmetry D_3h.
 
 
 KPOINTS: 0.030  12  12   6   76  0.040  156    9 
  k-points in reciprocal lattice
Space group operators:
 irot       det(A)        alpha          n_x          n_y          n_z        tau_x        tau_y        tau_z
    1     1.000000     0.000000     1.000000     0.000000     0.000000     0.000000     0.000000     0.000000
    2    -1.000000    60.000000     0.000000     0.000000    -1.000000     0.000000     0.000000     0.000000
    3     1.000000   120.000000     0.000000     0.000000    -1.000000     0.000000     0.000000     0.000000
    4    -1.000000   180.000000     0.000000     0.000000     1.000000     0.000000     0.000000     0.000000
    5     1.000000   120.000000     0.000000     0.000000     1.000000     0.000000     0.000000     0.000000
    6    -1.000000    60.000000     0.000000     0.000000     1.000000     0.000000     0.000000     0.000000
    7    -1.000000   180.000000     1.000000     0.000000     0.000000     0.000000     0.000000     0.000000
    8     1.000000   180.000000     0.866025    -0.500000     0.000000     0.000000     0.000000     0.000000
    9    -1.000000   180.000000     0.500000    -0.866025     0.000000     0.000000     0.000000     0.000000
   10     1.000000   180.000000     0.000000     1.000000     0.000000     0.000000     0.000000     0.000000
   11    -1.000000   180.000000    -0.500000    -0.866025     0.000000     0.000000     0.000000     0.000000
   12     1.000000   180.000000     0.866025     0.500000     0.000000     0.000000     0.000000     0.000000

 ----------------------------------------------------------------------------- 
|                                                                             |
|           W    W    AA    RRRRR   N    N  II  N    N   GGGG   !!!           |
|           W    W   A  A   R    R  NN   N  II  NN   N  G    G  !!!           |
|           W    W  A    A  R    R  N N  N  II  N N  N  G       !!!           |
|           W WW W  AAAAAA  RRRRR   N  N N  II  N  N N  G  GGG   !            |
|           WW  WW  A    A  R   R   N   NN  II  N   NN  G    G                |
|           W    W  A    A  R    R  N    N  II  N    N   GGGG   !!!           |
|                                                                             |
|      Your generating k-point grid is not commensurate to the symmetry       |
|      of the lattice.  This can cause   slow convergence with respect        |
|      to k-points for HF type calculations                                   |
|      suggested SOLUTIONS:                                                   |
|       ) if not already the case, use automatic k-point generation           |
|       ) shift your grid to Gamma (G) (e.g. required for hex or fcc lattice) |
|                                                                             |
 ----------------------------------------------------------------------------- 

 
 Subroutine IBZKPT_HF returns following result:
 ==============================================
 
 Found   1020 k-points in 1st BZ
 the following   1020 k-points will be used (e.g. in the exchange kernel)
 Following reciprocal coordinates:   # in IRBZ
  0.000000  0.000000  0.000000    0.00115741   1 t-inv F
  0.083333  0.000000  0.000000    0.00115741   2 t-inv F
  0.166667  0.000000  0.000000    0.00115741   3 t-inv F
  0.250000  0.000000  0.000000    0.00115741   4 t-inv F
  0.333333  0.000000  0.000000    0.00115741   5 t-inv F
  0.416667  0.000000  0.000000    0.00115741   6 t-inv F
  0.500000  0.000000  0.000000    0.00115741   7 t-inv F
  0.083333  0.083333  0.000000    0.00115741   8 t-inv F
  0.166667  0.083333  0.000000    0.00115741   9 t-inv F
  0.250000  0.083333  0.000000    0.00115741  10 t-inv F
  0.333333  0.083333  0.000000    0.00115741  11 t-inv F
  0.416667  0.083333  0.000000    0.00115741  12 t-inv F
  0.166667  0.166667  0.000000    0.00115741  13 t-inv F
  0.250000  0.166667  0.000000    0.00115741  14 t-inv F
  0.333333  0.166667  0.000000    0.00115741  15 t-inv F
  0.416667  0.166667  0.000000    0.00115741  16 t-inv F
  0.250000  0.250000  0.000000    0.00115741  17 t-inv F
  0.333333  0.250000  0.000000    0.00115741  18 t-inv F
  0.333333  0.333333  0.000000    0.00115741  19 t-inv F
  0.000000  0.000000  0.166667    0.00115741  20 t-inv F
  0.083333  0.000000  0.166667    0.00115741  21 t-inv F
  0.166667  0.000000  0.166667    0.00115741  22 t-inv F
  0.250000  0.000000  0.166667    0.00115741  23 t-inv F
  0.333333  0.000000  0.166667    0.00115741  24 t-inv F
  0.416667  0.000000  0.166667    0.00115741  25 t-inv F
  0.500000  0.000000  0.166667    0.00115741  26 t-inv F
  0.083333  0.083333  0.166667    0.00115741  27 t-inv F
  0.166667  0.083333  0.166667    0.00115741  28 t-inv F
  0.250000  0.083333  0.166667    0.00115741  29 t-inv F
  0.333333  0.083333  0.166667    0.00115741  30 t-inv F
  0.416667  0.083333  0.166667    0.00115741  31 t-inv F
  0.166667  0.166667  0.166667    0.00115741  32 t-inv F
  0.250000  0.166667  0.166667    0.00115741  33 t-inv F
  0.333333  0.166667  0.166667    0.00115741  34 t-inv F
  0.416667  0.166667  0.166667    0.00115741  35 t-inv F
  0.250000  0.250000  0.166667    0.00115741  36 t-inv F
  0.333333  0.250000  0.166667    0.00115741  37 t-inv F
  0.333333  0.333333  0.166667    0.00115741  38 t-inv F
  0.000000  0.000000  0.333333    0.00115741  39 t-inv F
  0.083333  0.000000  0.333333    0.00115741  40 t-inv F
  0.166667  0.000000  0.333333    0.00115741  41 t-inv F
  0.250000  0.000000  0.333333    0.00115741  42 t-inv F
  0.333333  0.000000  0.333333    0.00115741  43 t-inv F
  0.416667  0.000000  0.333333    0.00115741  44 t-inv F
  0.500000  0.000000  0.333333    0.00115741  45 t-inv F
  0.083333  0.083333  0.333333    0.00115741  46 t-inv F
  0.166667  0.083333  0.333333    0.00115741  47 t-inv F
  0.250000  0.083333  0.333333    0.00115741  48 t-inv F
  0.333333  0.083333  0.333333    0.00115741  49 t-inv F
  0.416667  0.083333  0.333333    0.00115741  50 t-inv F
  0.166667  0.166667  0.333333    0.00115741  51 t-inv F
  0.250000  0.166667  0.333333    0.00115741  52 t-inv F
  0.333333  0.166667  0.333333    0.00115741  53 t-inv F
  0.416667  0.166667  0.333333    0.00115741  54 t-inv F
  0.250000  0.250000  0.333333    0.00115741  55 t-inv F
  0.333333  0.250000  0.333333    0.00115741  56 t-inv F
  0.333333  0.333333  0.333333    0.00115741  57 t-inv F
  0.000000  0.000000  0.500000    0.00115741  58 t-inv F
  0.083333  0.000000  0.500000    0.00115741  59 t-inv F
  0.166667  0.000000  0.500000    0.00115741  60 t-inv F
  0.250000  0.000000  0.500000    0.00115741  61 t-inv F
  0.333333  0.000000  0.500000    0.00115741  62 t-inv F
  0.416667  0.000000  0.500000    0.00115741  63 t-inv F
  0.500000  0.000000  0.500000    0.00115741  64 t-inv F
  0.083333  0.083333  0.500000    0.00115741  65 t-inv F
  0.166667  0.083333  0.500000    0.00115741  66 t-inv F
  0.250000  0.083333  0.500000    0.00115741  67 t-inv F
  0.333333  0.083333  0.500000    0.00115741  68 t-inv F
  0.416667  0.083333  0.500000    0.00115741  69 t-inv F
  0.166667  0.166667  0.500000    0.00115741  70 t-inv F
  0.250000  0.166667  0.500000    0.00115741  71 t-inv F
  0.333333  0.166667  0.500000    0.00115741  72 t-inv F
  0.416667  0.166667  0.500000    0.00115741  73 t-inv F
  0.250000  0.250000  0.500000    0.00115741  74 t-inv F
  0.333333  0.250000  0.500000    0.00115741  75 t-inv F
  0.333333  0.333333  0.500000    0.00115741  76 t-inv F
  0.000000  0.000000  0.000000    0.00000000  77 t-inv F
  0.025000  0.000000  0.000000    0.00000000  78 t-inv F
  0.050000  0.000000  0.000000    0.00000000  79 t-inv F
  0.075000  0.000000  0.000000    0.00000000  80 t-inv F
  0.100000  0.000000  0.000000    0.00000000  81 t-inv F
  0.125000  0.000000  0.000000    0.00000000  82 t-inv F
  0.150000  0.000000  0.000000    0.00000000  83 t-inv F
  0.175000  0.000000  0.000000    0.00000000  84 t-inv F
  0.200000  0.000000  0.000000    0.00000000  85 t-inv F
  0.225000  0.000000  0.000000    0.00000000  86 t-inv F
  0.250000  0.000000  0.000000    0.00000000  87 t-inv F
  0.275000  0.000000  0.000000    0.00000000  88 t-inv F
  0.300000  0.000000  0.000000    0.00000000  89 t-inv F
  0.325000  0.000000  0.000000    0.00000000  90 t-inv F
  0.350000  0.000000  0.000000    0.00000000  91 t-inv F
  0.375000  0.000000  0.000000    0.00000000  92 t-inv F
  0.400000  0.000000  0.000000    0.00000000  93 t-inv F
  0.425000  0.000000  0.000000    0.00000000  94 t-inv F
  0.450000  0.000000  0.000000    0.00000000  95 t-inv F
  0.475000  0.000000  0.000000    0.00000000  96 t-inv F
  0.500000  0.000000  0.000000    0.00000000  97 t-inv F
  0.500000  0.000000  0.000000    0.00000000  98 t-inv F
  0.484848  0.030303  0.000000    0.00000000  99 t-inv F
  0.469697  0.060606  0.000000    0.00000000 100 t-inv F
  0.454545  0.090909  0.000000    0.00000000 101 t-inv F
  0.439394  0.121212  0.000000    0.00000000 102 t-inv F
  0.424242  0.151515  0.000000    0.00000000 103 t-inv F
  0.409091  0.181818  0.000000    0.00000000 104 t-inv F
  0.393939  0.212121  0.000000    0.00000000 105 t-inv F
  0.378788  0.242424  0.000000    0.00000000 106 t-inv F
  0.363636  0.272727  0.000000    0.00000000 107 t-inv F
  0.348485  0.303030  0.000000    0.00000000 108 t-inv F
  0.333333  0.333333  0.000000    0.00000000 109 t-inv F
  0.333333  0.333333  0.000000    0.00000000 110 t-inv F
  0.318841  0.318841  0.000000    0.00000000 111 t-inv F
  0.304348  0.304348  0.000000    0.00000000 112 t-inv F
  0.289855  0.289855  0.000000    0.00000000 113 t-inv F
  0.275362  0.275362  0.000000    0.00000000 114 t-inv F
  0.260870  0.260870  0.000000    0.00000000 115 t-inv F
  0.246377  0.246377  0.000000    0.00000000 116 t-inv F
  0.231884  0.231884  0.000000    0.00000000 117 t-inv F
  0.217391  0.217391  0.000000    0.00000000 118 t-inv F
  0.202899  0.202899  0.000000    0.00000000 119 t-inv F
  0.188406  0.188406  0.000000    0.00000000 120 t-inv F
  0.173913  0.173913  0.000000    0.00000000 121 t-inv F
  0.159420  0.159420  0.000000    0.00000000 122 t-inv F
  0.144928  0.144928  0.000000    0.00000000 123 t-inv F
  0.130435  0.130435  0.000000    0.00000000 124 t-inv F
  0.115942  0.115942  0.000000    0.00000000 125 t-inv F
  0.101449  0.101449  0.000000    0.00000000 126 t-inv F
  0.086957  0.086957  0.000000    0.00000000 127 t-inv F
  0.072464  0.072464  0.000000    0.00000000 128 t-inv F
  0.057971  0.057971  0.000000    0.00000000 129 t-inv F
  0.043478  0.043478  0.000000    0.00000000 130 t-inv F
  0.028986  0.028986  0.000000    0.00000000 131 t-inv F
  0.014493  0.014493  0.000000    0.00000000 132 t-inv F
  0.000000  0.000000  0.000000    0.00000000 133 t-inv F
  0.000000  0.000000  0.000000    0.00000000 134 t-inv F
  0.000000  0.000000  0.038462    0.00000000 135 t-inv F
  0.000000  0.000000  0.076923    0.00000000 136 t-inv F
  0.000000  0.000000  0.115385    0.00000000 137 t-inv F
  0.000000  0.000000  0.153846    0.00000000 138 t-inv F
  0.000000  0.000000  0.192308    0.00000000 139 t-inv F
  0.000000  0.000000  0.230769    0.00000000 140 t-inv F
  0.000000  0.000000  0.269231    0.00000000 141 t-inv F
  0.000000  0.000000  0.307692    0.00000000 142 t-inv F
  0.000000  0.000000  0.346154    0.00000000 143 t-inv F
  0.000000  0.000000  0.384615    0.00000000 144 t-inv F
  0.000000  0.000000  0.423077    0.00000000 145 t-inv F
  0.000000  0.000000  0.461538    0.00000000 146 t-inv F
  0.000000  0.000000  0.500000    0.00000000 147 t-inv F
  0.000000  0.000000  0.500000    0.00000000 148 t-inv F
  0.025000  0.000000  0.500000    0.00000000 149 t-inv F
  0.050000  0.000000  0.500000    0.00000000 150 t-inv F
  0.075000  0.000000  0.500000    0.00000000 151 t-inv F
  0.100000  0.000000  0.500000    0.00000000 152 t-inv F
  0.125000  0.000000  0.500000    0.00000000 153 t-inv F
  0.150000  0.000000  0.500000    0.00000000 154 t-inv F
  0.175000  0.000000  0.500000    0.00000000 155 t-inv F
  0.200000  0.000000  0.500000    0.00000000 156 t-inv F
  0.225000  0.000000  0.500000    0.00000000 157 t-inv F
  0.250000  0.000000  0.500000    0.00000000 158 t-inv F
  0.275000  0.000000  0.500000    0.00000000 159 t-inv F
  0.300000  0.000000  0.500000    0.00000000 160 t-inv F
  0.325000  0.000000  0.500000    0.00000000 161 t-inv F
  0.350000  0.000000  0.500000    0.00000000 162 t-inv F
  0.375000  0.000000  0.500000    0.00000000 163 t-inv F
  0.400000  0.000000  0.500000    0.00000000 164 t-inv F
  0.425000  0.000000  0.500000    0.00000000 165 t-inv F
  0.450000  0.000000  0.500000    0.00000000 166 t-inv F
  0.475000  0.000000  0.500000    0.00000000 167 t-inv F
  0.500000  0.000000  0.500000    0.00000000 168 t-inv F
  0.500000  0.000000  0.500000    0.00000000 169 t-inv F
  0.484848  0.030303  0.500000    0.00000000 170 t-inv F
  0.469697  0.060606  0.500000    0.00000000 171 t-inv F
  0.454545  0.090909  0.500000    0.00000000 172 t-inv F
  0.439394  0.121212  0.500000    0.00000000 173 t-inv F
  0.424242  0.151515  0.500000    0.00000000 174 t-inv F
  0.409091  0.181818  0.500000    0.00000000 175 t-inv F
  0.393939  0.212121  0.500000    0.00000000 176 t-inv F
  0.378788  0.242424  0.500000    0.00000000 177 t-inv F
  0.363636  0.272727  0.500000    0.00000000 178 t-inv F
  0.348485  0.303030  0.500000    0.00000000 179 t-inv F
  0.333333  0.333333  0.500000    0.00000000 180 t-inv F
  0.333333  0.333333  0.500000    0.00000000 181 t-inv F
  0.318841  0.318841  0.500000    0.00000000 182 t-inv F
  0.304348  0.304348  0.500000    0.00000000 183 t-inv F
  0.289855  0.289855  0.500000    0.00000000 184 t-inv F
  0.275362  0.275362  0.500000    0.00000000 185 t-inv F
  0.260870  0.260870  0.500000    0.00000000 186 t-inv F
  0.246377  0.246377  0.500000    0.00000000 187 t-inv F
  0.231884  0.231884  0.500000    0.00000000 188 t-inv F
  0.217391  0.217391  0.500000    0.00000000 189 t-inv F
  0.202899  0.202899  0.500000    0.00000000 190 t-inv F
  0.188406  0.188406  0.500000    0.00000000 191 t-inv F
  0.173913  0.173913  0.500000    0.00000000 192 t-inv F
  0.159420  0.159420  0.500000    0.00000000 193 t-inv F
  0.144928  0.144928  0.500000    0.00000000 194 t-inv F
  0.130435  0.130435  0.500000    0.00000000 195 t-inv F
  0.115942  0.115942  0.500000    0.00000000 196 t-inv F
  0.101449  0.101449  0.500000    0.00000000 197 t-inv F
  0.086957  0.086957  0.500000    0.00000000 198 t-inv F
  0.072464  0.072464  0.500000    0.00000000 199 t-inv F
  0.057971  0.057971  0.500000    0.00000000 200 t-inv F
  0.043478  0.043478  0.500000    0.00000000 201 t-inv F
  0.028986  0.028986  0.500000    0.00000000 202 t-inv F
  0.014493  0.014493  0.500000    0.00000000 203 t-inv F
  0.000000  0.000000  0.500000    0.00000000 204 t-inv F
  0.500000  0.000000  0.500000    0.00000000 205 t-inv F
  0.500000  0.000000  0.461538    0.00000000 206 t-inv F
  0.500000  0.000000  0.423077    0.00000000 207 t-inv F
  0.500000  0.000000  0.384615    0.00000000 208 t-inv F
  0.500000  0.000000  0.346154    0.00000000 209 t-inv F
  0.500000  0.000000  0.307692    0.00000000 210 t-inv F
  0.500000  0.000000  0.269231    0.00000000 211 t-inv F
  0.500000  0.000000  0.230769    0.00000000 212 t-inv F
  0.500000  0.000000  0.192308    0.00000000 213 t-inv F
  0.500000  0.000000  0.153846    0.00000000 214 t-inv F
  0.500000  0.000000  0.115385    0.00000000 215 t-inv F
  0.500000  0.000000  0.076923    0.00000000 216 t-inv F
  0.500000  0.000000  0.038462    0.00000000 217 t-inv F
  0.500000  0.000000  0.000000    0.00000000 218 t-inv F
  0.333333  0.333333  0.500000    0.00000000 219 t-inv F
  0.333333  0.333333  0.461538    0.00000000 220 t-inv F
  0.333333  0.333333  0.423077    0.00000000 221 t-inv F
  0.333333  0.333333  0.384615    0.00000000 222 t-inv F
  0.333333  0.333333  0.346154    0.00000000 223 t-inv F
  0.333333  0.333333  0.307692    0.00000000 224 t-inv F
  0.333333  0.333333  0.269231    0.00000000 225 t-inv F
  0.333333  0.333333  0.230769    0.00000000 226 t-inv F
  0.333333  0.333333  0.192308    0.00000000 227 t-inv F
  0.333333  0.333333  0.153846    0.00000000 228 t-inv F
  0.333333  0.333333  0.115385    0.00000000 229 t-inv F
  0.333333  0.333333  0.076923    0.00000000 230 t-inv F
  0.333333  0.333333  0.038462    0.00000000 231 t-inv F
  0.333333  0.333333  0.000000    0.00000000 232 t-inv F
  0.000000 -0.083333  0.000000    0.00115741   2 t-inv F
 -0.083333  0.083333  0.000000    0.00115741   2 t-inv F
  0.000000 -0.166667  0.000000    0.00115741   3 t-inv F
 -0.166667  0.166667  0.000000    0.00115741   3 t-inv F
  0.000000 -0.250000  0.000000    0.00115741   4 t-inv F
 -0.250000  0.250000  0.000000    0.00115741   4 t-inv F
  0.000000 -0.333333  0.000000    0.00115741   5 t-inv F
 -0.333333  0.333333  0.000000    0.00115741   5 t-inv F
  0.000000 -0.416667  0.000000    0.00115741   6 t-inv F
 -0.416667  0.416667  0.000000    0.00115741   6 t-inv F
  0.000000 -0.500000  0.000000    0.00115741   7 t-inv F
 -0.500000  0.500000  0.000000    0.00115741   7 t-inv F
  0.083333 -0.166667  0.000000    0.00115741   8 t-inv F
 -0.166667  0.083333  0.000000    0.00115741   8 t-inv F
 -0.083333  0.166667  0.000000    0.00115741   8 t-inv F
 -0.083333 -0.083333  0.000000    0.00115741   8 t-inv F
  0.166667 -0.083333  0.000000    0.00115741   8 t-inv F
  0.083333 -0.250000  0.000000    0.00115741   9 t-inv F
 -0.250000  0.166667  0.000000    0.00115741   9 t-inv F
 -0.166667  0.250000  0.000000    0.00115741   9 t-inv F
 -0.083333 -0.166667  0.000000    0.00115741   9 t-inv F
  0.250000 -0.083333  0.000000    0.00115741   9 t-inv F
  0.083333 -0.333333  0.000000    0.00115741  10 t-inv F
 -0.333333  0.250000  0.000000    0.00115741  10 t-inv F
 -0.250000  0.333333  0.000000    0.00115741  10 t-inv F
 -0.083333 -0.250000  0.000000    0.00115741  10 t-inv F
  0.333333 -0.083333  0.000000    0.00115741  10 t-inv F
  0.083333 -0.416667  0.000000    0.00115741  11 t-inv F
 -0.416667  0.333333  0.000000    0.00115741  11 t-inv F
 -0.333333  0.416667  0.000000    0.00115741  11 t-inv F
 -0.083333 -0.333333  0.000000    0.00115741  11 t-inv F
  0.416667 -0.083333  0.000000    0.00115741  11 t-inv F
  0.083333 -0.500000  0.000000    0.00115741  12 t-inv F
 -0.500000  0.416667  0.000000    0.00115741  12 t-inv F
 -0.416667  0.500000  0.000000    0.00115741  12 t-inv F
 -0.083333 -0.416667  0.000000    0.00115741  12 t-inv F
  0.500000 -0.083333  0.000000    0.00115741  12 t-inv F
  0.166667 -0.333333  0.000000    0.00115741  13 t-inv F
 -0.333333  0.166667  0.000000    0.00115741  13 t-inv F
 -0.166667  0.333333  0.000000    0.00115741  13 t-inv F
 -0.166667 -0.166667  0.000000    0.00115741  13 t-inv F
  0.333333 -0.166667  0.000000    0.00115741  13 t-inv F
  0.166667 -0.416667  0.000000    0.00115741  14 t-inv F
 -0.416667  0.250000  0.000000    0.00115741  14 t-inv F
 -0.250000  0.416667  0.000000    0.00115741  14 t-inv F
 -0.166667 -0.250000  0.000000    0.00115741  14 t-inv F
  0.416667 -0.166667  0.000000    0.00115741  14 t-inv F
  0.166667 -0.500000  0.000000    0.00115741  15 t-inv F
 -0.500000  0.333333  0.000000    0.00115741  15 t-inv F
 -0.333333  0.500000  0.000000    0.00115741  15 t-inv F
 -0.166667 -0.333333  0.000000    0.00115741  15 t-inv F
  0.500000 -0.166667  0.000000    0.00115741  15 t-inv F
  0.166667 -0.583333  0.000000    0.00115741  16 t-inv F
 -0.583333  0.416667  0.000000    0.00115741  16 t-inv F
 -0.416667  0.583333  0.000000    0.00115741  16 t-inv F
 -0.166667 -0.416667  0.000000    0.00115741  16 t-inv F
  0.583333 -0.166667  0.000000    0.00115741  16 t-inv F
  0.250000 -0.500000  0.000000    0.00115741  17 t-inv F
 -0.500000  0.250000  0.000000    0.00115741  17 t-inv F
 -0.250000  0.500000  0.000000    0.00115741  17 t-inv F
 -0.250000 -0.250000  0.000000    0.00115741  17 t-inv F
  0.500000 -0.250000  0.000000    0.00115741  17 t-inv F
  0.250000 -0.583333  0.000000    0.00115741  18 t-inv F
 -0.583333  0.333333  0.000000    0.00115741  18 t-inv F
 -0.333333  0.583333  0.000000    0.00115741  18 t-inv F
 -0.250000 -0.333333  0.000000    0.00115741  18 t-inv F
  0.583333 -0.250000  0.000000    0.00115741  18 t-inv F
 -0.333333  0.666667  0.000000    0.00115741  19 t-inv F
  0.000000  0.000000 -0.166667    0.00115741  20 t-inv F
  0.000000 -0.083333 -0.166667    0.00115741  21 t-inv F
 -0.083333  0.083333  0.166667    0.00115741  21 t-inv F
  0.083333  0.000000 -0.166667    0.00115741  21 t-inv F
  0.000000 -0.083333  0.166667    0.00115741  21 t-inv F
 -0.083333  0.083333 -0.166667    0.00115741  21 t-inv F
  0.000000 -0.166667 -0.166667    0.00115741  22 t-inv F
 -0.166667  0.166667  0.166667    0.00115741  22 t-inv F
  0.166667  0.000000 -0.166667    0.00115741  22 t-inv F
  0.000000 -0.166667  0.166667    0.00115741  22 t-inv F
 -0.166667  0.166667 -0.166667    0.00115741  22 t-inv F
  0.000000 -0.250000 -0.166667    0.00115741  23 t-inv F
 -0.250000  0.250000  0.166667    0.00115741  23 t-inv F
  0.250000  0.000000 -0.166667    0.00115741  23 t-inv F
  0.000000 -0.250000  0.166667    0.00115741  23 t-inv F
 -0.250000  0.250000 -0.166667    0.00115741  23 t-inv F
  0.000000 -0.333333 -0.166667    0.00115741  24 t-inv F
 -0.333333  0.333333  0.166667    0.00115741  24 t-inv F
  0.333333  0.000000 -0.166667    0.00115741  24 t-inv F
  0.000000 -0.333333  0.166667    0.00115741  24 t-inv F
 -0.333333  0.333333 -0.166667    0.00115741  24 t-inv F
  0.000000 -0.416667 -0.166667    0.00115741  25 t-inv F
 -0.416667  0.416667  0.166667    0.00115741  25 t-inv F
  0.416667  0.000000 -0.166667    0.00115741  25 t-inv F
  0.000000 -0.416667  0.166667    0.00115741  25 t-inv F
 -0.416667  0.416667 -0.166667    0.00115741  25 t-inv F
  0.000000 -0.500000 -0.166667    0.00115741  26 t-inv F
 -0.500000  0.500000  0.166667    0.00115741  26 t-inv F
  0.500000  0.000000 -0.166667    0.00115741  26 t-inv F
  0.000000 -0.500000  0.166667    0.00115741  26 t-inv F
 -0.500000  0.500000 -0.166667    0.00115741  26 t-inv F
  0.083333 -0.166667 -0.166667    0.00115741  27 t-inv F
 -0.166667  0.083333  0.166667    0.00115741  27 t-inv F
  0.083333  0.083333 -0.166667    0.00115741  27 t-inv F
  0.083333 -0.166667  0.166667    0.00115741  27 t-inv F
 -0.166667  0.083333 -0.166667    0.00115741  27 t-inv F
 -0.083333  0.166667  0.166667    0.00115741  27 t-inv F
 -0.083333 -0.083333 -0.166667    0.00115741  27 t-inv F
  0.166667 -0.083333  0.166667    0.00115741  27 t-inv F
 -0.083333  0.166667 -0.166667    0.00115741  27 t-inv F
 -0.083333 -0.083333  0.166667    0.00115741  27 t-inv F
  0.166667 -0.083333 -0.166667    0.00115741  27 t-inv F
  0.083333 -0.250000 -0.166667    0.00115741  28 t-inv F
 -0.250000  0.166667  0.166667    0.00115741  28 t-inv F
  0.166667  0.083333 -0.166667    0.00115741  28 t-inv F
  0.083333 -0.250000  0.166667    0.00115741  28 t-inv F
 -0.250000  0.166667 -0.166667    0.00115741  28 t-inv F
 -0.166667  0.250000  0.166667    0.00115741  28 t-inv F
 -0.083333 -0.166667 -0.166667    0.00115741  28 t-inv F
  0.250000 -0.083333  0.166667    0.00115741  28 t-inv F
 -0.166667  0.250000 -0.166667    0.00115741  28 t-inv F
 -0.083333 -0.166667  0.166667    0.00115741  28 t-inv F
  0.250000 -0.083333 -0.166667    0.00115741  28 t-inv F
  0.083333 -0.333333 -0.166667    0.00115741  29 t-inv F
 -0.333333  0.250000  0.166667    0.00115741  29 t-inv F
  0.250000  0.083333 -0.166667    0.00115741  29 t-inv F
  0.083333 -0.333333  0.166667    0.00115741  29 t-inv F
 -0.333333  0.250000 -0.166667    0.00115741  29 t-inv F
 -0.250000  0.333333  0.166667    0.00115741  29 t-inv F
 -0.083333 -0.250000 -0.166667    0.00115741  29 t-inv F
  0.333333 -0.083333  0.166667    0.00115741  29 t-inv F
 -0.250000  0.333333 -0.166667    0.00115741  29 t-inv F
 -0.083333 -0.250000  0.166667    0.00115741  29 t-inv F
  0.333333 -0.083333 -0.166667    0.00115741  29 t-inv F
  0.083333 -0.416667 -0.166667    0.00115741  30 t-inv F
 -0.416667  0.333333  0.166667    0.00115741  30 t-inv F
  0.333333  0.083333 -0.166667    0.00115741  30 t-inv F
  0.083333 -0.416667  0.166667    0.00115741  30 t-inv F
 -0.416667  0.333333 -0.166667    0.00115741  30 t-inv F
 -0.333333  0.416667  0.166667    0.00115741  30 t-inv F
 -0.083333 -0.333333 -0.166667    0.00115741  30 t-inv F
  0.416667 -0.083333  0.166667    0.00115741  30 t-inv F
 -0.333333  0.416667 -0.166667    0.00115741  30 t-inv F
 -0.083333 -0.333333  0.166667    0.00115741  30 t-inv F
  0.416667 -0.083333 -0.166667    0.00115741  30 t-inv F
  0.083333 -0.500000 -0.166667    0.00115741  31 t-inv F
 -0.500000  0.416667  0.166667    0.00115741  31 t-inv F
  0.416667  0.083333 -0.166667    0.00115741  31 t-inv F
  0.083333 -0.500000  0.166667    0.00115741  31 t-inv F
 -0.500000  0.416667 -0.166667    0.00115741  31 t-inv F
 -0.416667  0.500000  0.166667    0.00115741  31 t-inv F
 -0.083333 -0.416667 -0.166667    0.00115741  31 t-inv F
  0.500000 -0.083333  0.166667    0.00115741  31 t-inv F
 -0.416667  0.500000 -0.166667    0.00115741  31 t-inv F
 -0.083333 -0.416667  0.166667    0.00115741  31 t-inv F
  0.500000 -0.083333 -0.166667    0.00115741  31 t-inv F
  0.166667 -0.333333 -0.166667    0.00115741  32 t-inv F
 -0.333333  0.166667  0.166667    0.00115741  32 t-inv F
  0.166667  0.166667 -0.166667    0.00115741  32 t-inv F
  0.166667 -0.333333  0.166667    0.00115741  32 t-inv F
 -0.333333  0.166667 -0.166667    0.00115741  32 t-inv F
 -0.166667  0.333333  0.166667    0.00115741  32 t-inv F
 -0.166667 -0.166667 -0.166667    0.00115741  32 t-inv F
  0.333333 -0.166667  0.166667    0.00115741  32 t-inv F
 -0.166667  0.333333 -0.166667    0.00115741  32 t-inv F
 -0.166667 -0.166667  0.166667    0.00115741  32 t-inv F
  0.333333 -0.166667 -0.166667    0.00115741  32 t-inv F
  0.166667 -0.416667 -0.166667    0.00115741  33 t-inv F
 -0.416667  0.250000  0.166667    0.00115741  33 t-inv F
  0.250000  0.166667 -0.166667    0.00115741  33 t-inv F
  0.166667 -0.416667  0.166667    0.00115741  33 t-inv F
 -0.416667  0.250000 -0.166667    0.00115741  33 t-inv F
 -0.250000  0.416667  0.166667    0.00115741  33 t-inv F
 -0.166667 -0.250000 -0.166667    0.00115741  33 t-inv F
  0.416667 -0.166667  0.166667    0.00115741  33 t-inv F
 -0.250000  0.416667 -0.166667    0.00115741  33 t-inv F
 -0.166667 -0.250000  0.166667    0.00115741  33 t-inv F
  0.416667 -0.166667 -0.166667    0.00115741  33 t-inv F
  0.166667 -0.500000 -0.166667    0.00115741  34 t-inv F
 -0.500000  0.333333  0.166667    0.00115741  34 t-inv F
  0.333333  0.166667 -0.166667    0.00115741  34 t-inv F
  0.166667 -0.500000  0.166667    0.00115741  34 t-inv F
 -0.500000  0.333333 -0.166667    0.00115741  34 t-inv F
 -0.333333  0.500000  0.166667    0.00115741  34 t-inv F
 -0.166667 -0.333333 -0.166667    0.00115741  34 t-inv F
  0.500000 -0.166667  0.166667    0.00115741  34 t-inv F
 -0.333333  0.500000 -0.166667    0.00115741  34 t-inv F
 -0.166667 -0.333333  0.166667    0.00115741  34 t-inv F
  0.500000 -0.166667 -0.166667    0.00115741  34 t-inv F
  0.166667 -0.583333 -0.166667    0.00115741  35 t-inv F
 -0.583333  0.416667  0.166667    0.00115741  35 t-inv F
  0.416667  0.166667 -0.166667    0.00115741  35 t-inv F
  0.166667 -0.583333  0.166667    0.00115741  35 t-inv F
 -0.583333  0.416667 -0.166667    0.00115741  35 t-inv F
 -0.416667  0.583333  0.166667    0.00115741  35 t-inv F
 -0.166667 -0.416667 -0.166667    0.00115741  35 t-inv F
  0.583333 -0.166667  0.166667    0.00115741  35 t-inv F
 -0.416667  0.583333 -0.166667    0.00115741  35 t-inv F
 -0.166667 -0.416667  0.166667    0.00115741  35 t-inv F
  0.583333 -0.166667 -0.166667    0.00115741  35 t-inv F
  0.250000 -0.500000 -0.166667    0.00115741  36 t-inv F
 -0.500000  0.250000  0.166667    0.00115741  36 t-inv F
  0.250000  0.250000 -0.166667    0.00115741  36 t-inv F
  0.250000 -0.500000  0.166667    0.00115741  36 t-inv F
 -0.500000  0.250000 -0.166667    0.00115741  36 t-inv F
 -0.250000  0.500000  0.166667    0.00115741  36 t-inv F
 -0.250000 -0.250000 -0.166667    0.00115741  36 t-inv F
  0.500000 -0.250000  0.166667    0.00115741  36 t-inv F
 -0.250000  0.500000 -0.166667    0.00115741  36 t-inv F
 -0.250000 -0.250000  0.166667    0.00115741  36 t-inv F
  0.500000 -0.250000 -0.166667    0.00115741  36 t-inv F
  0.250000 -0.583333 -0.166667    0.00115741  37 t-inv F
 -0.583333  0.333333  0.166667    0.00115741  37 t-inv F
  0.333333  0.250000 -0.166667    0.00115741  37 t-inv F
  0.250000 -0.583333  0.166667    0.00115741  37 t-inv F
 -0.583333  0.333333 -0.166667    0.00115741  37 t-inv F
 -0.333333  0.583333  0.166667    0.00115741  37 t-inv F
 -0.250000 -0.333333 -0.166667    0.00115741  37 t-inv F
  0.583333 -0.250000  0.166667    0.00115741  37 t-inv F
 -0.333333  0.583333 -0.166667    0.00115741  37 t-inv F
 -0.250000 -0.333333  0.166667    0.00115741  37 t-inv F
  0.583333 -0.250000 -0.166667    0.00115741  37 t-inv F
  0.333333 -0.666667 -0.166667    0.00115741  38 t-inv F
 -0.333333  0.666667  0.166667    0.00115741  38 t-inv F
 -0.333333 -0.333333 -0.166667    0.00115741  38 t-inv F
  0.000000  0.000000 -0.333333    0.00115741  39 t-inv F
  0.000000 -0.083333 -0.333333    0.00115741  40 t-inv F
 -0.083333  0.083333  0.333333    0.00115741  40 t-inv F
  0.083333  0.000000 -0.333333    0.00115741  40 t-inv F
  0.000000 -0.083333  0.333333    0.00115741  40 t-inv F
 -0.083333  0.083333 -0.333333    0.00115741  40 t-inv F
  0.000000 -0.166667 -0.333333    0.00115741  41 t-inv F
 -0.166667  0.166667  0.333333    0.00115741  41 t-inv F
  0.166667  0.000000 -0.333333    0.00115741  41 t-inv F
  0.000000 -0.166667  0.333333    0.00115741  41 t-inv F
 -0.166667  0.166667 -0.333333    0.00115741  41 t-inv F
  0.000000 -0.250000 -0.333333    0.00115741  42 t-inv F
 -0.250000  0.250000  0.333333    0.00115741  42 t-inv F
  0.250000  0.000000 -0.333333    0.00115741  42 t-inv F
  0.000000 -0.250000  0.333333    0.00115741  42 t-inv F
 -0.250000  0.250000 -0.333333    0.00115741  42 t-inv F
  0.000000 -0.333333 -0.333333    0.00115741  43 t-inv F
 -0.333333  0.333333  0.333333    0.00115741  43 t-inv F
  0.333333  0.000000 -0.333333    0.00115741  43 t-inv F
  0.000000 -0.333333  0.333333    0.00115741  43 t-inv F
 -0.333333  0.333333 -0.333333    0.00115741  43 t-inv F
  0.000000 -0.416667 -0.333333    0.00115741  44 t-inv F
 -0.416667  0.416667  0.333333    0.00115741  44 t-inv F
  0.416667  0.000000 -0.333333    0.00115741  44 t-inv F
  0.000000 -0.416667  0.333333    0.00115741  44 t-inv F
 -0.416667  0.416667 -0.333333    0.00115741  44 t-inv F
  0.000000 -0.500000 -0.333333    0.00115741  45 t-inv F
 -0.500000  0.500000  0.333333    0.00115741  45 t-inv F
  0.500000  0.000000 -0.333333    0.00115741  45 t-inv F
  0.000000 -0.500000  0.333333    0.00115741  45 t-inv F
 -0.500000  0.500000 -0.333333    0.00115741  45 t-inv F
  0.083333 -0.166667 -0.333333    0.00115741  46 t-inv F
 -0.166667  0.083333  0.333333    0.00115741  46 t-inv F
  0.083333  0.083333 -0.333333    0.00115741  46 t-inv F
  0.083333 -0.166667  0.333333    0.00115741  46 t-inv F
 -0.166667  0.083333 -0.333333    0.00115741  46 t-inv F
 -0.083333  0.166667  0.333333    0.00115741  46 t-inv F
 -0.083333 -0.083333 -0.333333    0.00115741  46 t-inv F
  0.166667 -0.083333  0.333333    0.00115741  46 t-inv F
 -0.083333  0.166667 -0.333333    0.00115741  46 t-inv F
 -0.083333 -0.083333  0.333333    0.00115741  46 t-inv F
  0.166667 -0.083333 -0.333333    0.00115741  46 t-inv F
  0.083333 -0.250000 -0.333333    0.00115741  47 t-inv F
 -0.250000  0.166667  0.333333    0.00115741  47 t-inv F
  0.166667  0.083333 -0.333333    0.00115741  47 t-inv F
  0.083333 -0.250000  0.333333    0.00115741  47 t-inv F
 -0.250000  0.166667 -0.333333    0.00115741  47 t-inv F
 -0.166667  0.250000  0.333333    0.00115741  47 t-inv F
 -0.083333 -0.166667 -0.333333    0.00115741  47 t-inv F
  0.250000 -0.083333  0.333333    0.00115741  47 t-inv F
 -0.166667  0.250000 -0.333333    0.00115741  47 t-inv F
 -0.083333 -0.166667  0.333333    0.00115741  47 t-inv F
  0.250000 -0.083333 -0.333333    0.00115741  47 t-inv F
  0.083333 -0.333333 -0.333333    0.00115741  48 t-inv F
 -0.333333  0.250000  0.333333    0.00115741  48 t-inv F
  0.250000  0.083333 -0.333333    0.00115741  48 t-inv F
  0.083333 -0.333333  0.333333    0.00115741  48 t-inv F
 -0.333333  0.250000 -0.333333    0.00115741  48 t-inv F
 -0.250000  0.333333  0.333333    0.00115741  48 t-inv F
 -0.083333 -0.250000 -0.333333    0.00115741  48 t-inv F
  0.333333 -0.083333  0.333333    0.00115741  48 t-inv F
 -0.250000  0.333333 -0.333333    0.00115741  48 t-inv F
 -0.083333 -0.250000  0.333333    0.00115741  48 t-inv F
  0.333333 -0.083333 -0.333333    0.00115741  48 t-inv F
  0.083333 -0.416667 -0.333333    0.00115741  49 t-inv F
 -0.416667  0.333333  0.333333    0.00115741  49 t-inv F
  0.333333  0.083333 -0.333333    0.00115741  49 t-inv F
  0.083333 -0.416667  0.333333    0.00115741  49 t-inv F
 -0.416667  0.333333 -0.333333    0.00115741  49 t-inv F
 -0.333333  0.416667  0.333333    0.00115741  49 t-inv F
 -0.083333 -0.333333 -0.333333    0.00115741  49 t-inv F
  0.416667 -0.083333  0.333333    0.00115741  49 t-inv F
 -0.333333  0.416667 -0.333333    0.00115741  49 t-inv F
 -0.083333 -0.333333  0.333333    0.00115741  49 t-inv F
  0.416667 -0.083333 -0.333333    0.00115741  49 t-inv F
  0.083333 -0.500000 -0.333333    0.00115741  50 t-inv F
 -0.500000  0.416667  0.333333    0.00115741  50 t-inv F
  0.416667  0.083333 -0.333333    0.00115741  50 t-inv F
  0.083333 -0.500000  0.333333    0.00115741  50 t-inv F
 -0.500000  0.416667 -0.333333    0.00115741  50 t-inv F
 -0.416667  0.500000  0.333333    0.00115741  50 t-inv F
 -0.083333 -0.416667 -0.333333    0.00115741  50 t-inv F
  0.500000 -0.083333  0.333333    0.00115741  50 t-inv F
 -0.416667  0.500000 -0.333333    0.00115741  50 t-inv F
 -0.083333 -0.416667  0.333333    0.00115741  50 t-inv F
  0.500000 -0.083333 -0.333333    0.00115741  50 t-inv F
  0.166667 -0.333333 -0.333333    0.00115741  51 t-inv F
 -0.333333  0.166667  0.333333    0.00115741  51 t-inv F
  0.166667  0.166667 -0.333333    0.00115741  51 t-inv F
  0.166667 -0.333333  0.333333    0.00115741  51 t-inv F
 -0.333333  0.166667 -0.333333    0.00115741  51 t-inv F
 -0.166667  0.333333  0.333333    0.00115741  51 t-inv F
 -0.166667 -0.166667 -0.333333    0.00115741  51 t-inv F
  0.333333 -0.166667  0.333333    0.00115741  51 t-inv F
 -0.166667  0.333333 -0.333333    0.00115741  51 t-inv F
 -0.166667 -0.166667  0.333333    0.00115741  51 t-inv F
  0.333333 -0.166667 -0.333333    0.00115741  51 t-inv F
  0.166667 -0.416667 -0.333333    0.00115741  52 t-inv F
 -0.416667  0.250000  0.333333    0.00115741  52 t-inv F
  0.250000  0.166667 -0.333333    0.00115741  52 t-inv F
  0.166667 -0.416667  0.333333    0.00115741  52 t-inv F
 -0.416667  0.250000 -0.333333    0.00115741  52 t-inv F
 -0.250000  0.416667  0.333333    0.00115741  52 t-inv F
 -0.166667 -0.250000 -0.333333    0.00115741  52 t-inv F
  0.416667 -0.166667  0.333333    0.00115741  52 t-inv F
 -0.250000  0.416667 -0.333333    0.00115741  52 t-inv F
 -0.166667 -0.250000  0.333333    0.00115741  52 t-inv F
  0.416667 -0.166667 -0.333333    0.00115741  52 t-inv F
  0.166667 -0.500000 -0.333333    0.00115741  53 t-inv F
 -0.500000  0.333333  0.333333    0.00115741  53 t-inv F
  0.333333  0.166667 -0.333333    0.00115741  53 t-inv F
  0.166667 -0.500000  0.333333    0.00115741  53 t-inv F
 -0.500000  0.333333 -0.333333    0.00115741  53 t-inv F
 -0.333333  0.500000  0.333333    0.00115741  53 t-inv F
 -0.166667 -0.333333 -0.333333    0.00115741  53 t-inv F
  0.500000 -0.166667  0.333333    0.00115741  53 t-inv F
 -0.333333  0.500000 -0.333333    0.00115741  53 t-inv F
 -0.166667 -0.333333  0.333333    0.00115741  53 t-inv F
  0.500000 -0.166667 -0.333333    0.00115741  53 t-inv F
  0.166667 -0.583333 -0.333333    0.00115741  54 t-inv F
 -0.583333  0.416667  0.333333    0.00115741  54 t-inv F
  0.416667  0.166667 -0.333333    0.00115741  54 t-inv F
  0.166667 -0.583333  0.333333    0.00115741  54 t-inv F
 -0.583333  0.416667 -0.333333    0.00115741  54 t-inv F
 -0.416667  0.583333  0.333333    0.00115741  54 t-inv F
 -0.166667 -0.416667 -0.333333    0.00115741  54 t-inv F
  0.583333 -0.166667  0.333333    0.00115741  54 t-inv F
 -0.416667  0.583333 -0.333333    0.00115741  54 t-inv F
 -0.166667 -0.416667  0.333333    0.00115741  54 t-inv F
  0.583333 -0.166667 -0.333333    0.00115741  54 t-inv F
  0.250000 -0.500000 -0.333333    0.00115741  55 t-inv F
 -0.500000  0.250000  0.333333    0.00115741  55 t-inv F
  0.250000  0.250000 -0.333333    0.00115741  55 t-inv F
  0.250000 -0.500000  0.333333    0.00115741  55 t-inv F
 -0.500000  0.250000 -0.333333    0.00115741  55 t-inv F
 -0.250000  0.500000  0.333333    0.00115741  55 t-inv F
 -0.250000 -0.250000 -0.333333    0.00115741  55 t-inv F
  0.500000 -0.250000  0.333333    0.00115741  55 t-inv F
 -0.250000  0.500000 -0.333333    0.00115741  55 t-inv F
 -0.250000 -0.250000  0.333333    0.00115741  55 t-inv F
  0.500000 -0.250000 -0.333333    0.00115741  55 t-inv F
  0.250000 -0.583333 -0.333333    0.00115741  56 t-inv F
 -0.583333  0.333333  0.333333    0.00115741  56 t-inv F
  0.333333  0.250000 -0.333333    0.00115741  56 t-inv F
  0.250000 -0.583333  0.333333    0.00115741  56 t-inv F
 -0.583333  0.333333 -0.333333    0.00115741  56 t-inv F
 -0.333333  0.583333  0.333333    0.00115741  56 t-inv F
 -0.250000 -0.333333 -0.333333    0.00115741  56 t-inv F
  0.583333 -0.250000  0.333333    0.00115741  56 t-inv F
 -0.333333  0.583333 -0.333333    0.00115741  56 t-inv F
 -0.250000 -0.333333  0.333333    0.00115741  56 t-inv F
  0.583333 -0.250000 -0.333333    0.00115741  56 t-inv F
  0.333333 -0.666667 -0.333333    0.00115741  57 t-inv F
 -0.333333  0.666667  0.333333    0.00115741  57 t-inv F
 -0.333333 -0.333333 -0.333333    0.00115741  57 t-inv F
  0.000000 -0.083333 -0.500000    0.00115741  59 t-inv F
 -0.083333  0.083333  0.500000    0.00115741  59 t-inv F
  0.000000 -0.166667 -0.500000    0.00115741  60 t-inv F
 -0.166667  0.166667  0.500000    0.00115741  60 t-inv F
  0.000000 -0.250000 -0.500000    0.00115741  61 t-inv F
 -0.250000  0.250000  0.500000    0.00115741  61 t-inv F
  0.000000 -0.333333 -0.500000    0.00115741  62 t-inv F
 -0.333333  0.333333  0.500000    0.00115741  62 t-inv F
  0.000000 -0.416667 -0.500000    0.00115741  63 t-inv F
 -0.416667  0.416667  0.500000    0.00115741  63 t-inv F
  0.000000 -0.500000 -0.500000    0.00115741  64 t-inv F
 -0.500000  0.500000  0.500000    0.00115741  64 t-inv F
  0.083333 -0.166667 -0.500000    0.00115741  65 t-inv F
 -0.166667  0.083333  0.500000    0.00115741  65 t-inv F
 -0.083333  0.166667  0.500000    0.00115741  65 t-inv F
 -0.083333 -0.083333 -0.500000    0.00115741  65 t-inv F
  0.166667 -0.083333  0.500000    0.00115741  65 t-inv F
  0.083333 -0.250000 -0.500000    0.00115741  66 t-inv F
 -0.250000  0.166667  0.500000    0.00115741  66 t-inv F
 -0.166667  0.250000  0.500000    0.00115741  66 t-inv F
 -0.083333 -0.166667 -0.500000    0.00115741  66 t-inv F
  0.250000 -0.083333  0.500000    0.00115741  66 t-inv F
  0.083333 -0.333333 -0.500000    0.00115741  67 t-inv F
 -0.333333  0.250000  0.500000    0.00115741  67 t-inv F
 -0.250000  0.333333  0.500000    0.00115741  67 t-inv F
 -0.083333 -0.250000 -0.500000    0.00115741  67 t-inv F
  0.333333 -0.083333  0.500000    0.00115741  67 t-inv F
  0.083333 -0.416667 -0.500000    0.00115741  68 t-inv F
 -0.416667  0.333333  0.500000    0.00115741  68 t-inv F
 -0.333333  0.416667  0.500000    0.00115741  68 t-inv F
 -0.083333 -0.333333 -0.500000    0.00115741  68 t-inv F
  0.416667 -0.083333  0.500000    0.00115741  68 t-inv F
  0.083333 -0.500000 -0.500000    0.00115741  69 t-inv F
 -0.500000  0.416667  0.500000    0.00115741  69 t-inv F
 -0.416667  0.500000  0.500000    0.00115741  69 t-inv F
 -0.083333 -0.416667 -0.500000    0.00115741  69 t-inv F
  0.500000 -0.083333  0.500000    0.00115741  69 t-inv F
  0.166667 -0.333333 -0.500000    0.00115741  70 t-inv F
 -0.333333  0.166667  0.500000    0.00115741  70 t-inv F
 -0.166667  0.333333  0.500000    0.00115741  70 t-inv F
 -0.166667 -0.166667 -0.500000    0.00115741  70 t-inv F
  0.333333 -0.166667  0.500000    0.00115741  70 t-inv F
  0.166667 -0.416667 -0.500000    0.00115741  71 t-inv F
 -0.416667  0.250000  0.500000    0.00115741  71 t-inv F
 -0.250000  0.416667  0.500000    0.00115741  71 t-inv F
 -0.166667 -0.250000 -0.500000    0.00115741  71 t-inv F
  0.416667 -0.166667  0.500000    0.00115741  71 t-inv F
  0.166667 -0.500000 -0.500000    0.00115741  72 t-inv F
 -0.500000  0.333333  0.500000    0.00115741  72 t-inv F
 -0.333333  0.500000  0.500000    0.00115741  72 t-inv F
 -0.166667 -0.333333 -0.500000    0.00115741  72 t-inv F
  0.500000 -0.166667  0.500000    0.00115741  72 t-inv F
  0.166667 -0.583333 -0.500000    0.00115741  73 t-inv F
 -0.583333  0.416667  0.500000    0.00115741  73 t-inv F
 -0.416667  0.583333  0.500000    0.00115741  73 t-inv F
 -0.166667 -0.416667 -0.500000    0.00115741  73 t-inv F
  0.583333 -0.166667  0.500000    0.00115741  73 t-inv F
  0.250000 -0.500000 -0.500000    0.00115741  74 t-inv F
 -0.500000  0.250000  0.500000    0.00115741  74 t-inv F
 -0.250000  0.500000  0.500000    0.00115741  74 t-inv F
 -0.250000 -0.250000 -0.500000    0.00115741  74 t-inv F
  0.500000 -0.250000  0.500000    0.00115741  74 t-inv F
  0.250000 -0.583333 -0.500000    0.00115741  75 t-inv F
 -0.583333  0.333333  0.500000    0.00115741  75 t-inv F
 -0.333333  0.583333  0.500000    0.00115741  75 t-inv F
 -0.250000 -0.333333 -0.500000    0.00115741  75 t-inv F
  0.583333 -0.250000  0.500000    0.00115741  75 t-inv F
 -0.333333  0.666667  0.500000    0.00115741  76 t-inv F
 -0.083333  0.000000  0.000000    0.00115741   2 t-inv T
  0.000000  0.083333  0.000000    0.00115741   2 t-inv T
  0.083333 -0.083333  0.000000    0.00115741   2 t-inv T
 -0.166667  0.000000  0.000000    0.00115741   3 t-inv T
  0.000000  0.166667  0.000000    0.00115741   3 t-inv T
  0.166667 -0.166667  0.000000    0.00115741   3 t-inv T
 -0.250000  0.000000  0.000000    0.00115741   4 t-inv T
  0.000000  0.250000  0.000000    0.00115741   4 t-inv T
  0.250000 -0.250000  0.000000    0.00115741   4 t-inv T
 -0.333333  0.000000  0.000000    0.00115741   5 t-inv T
  0.000000  0.333333  0.000000    0.00115741   5 t-inv T
  0.333333 -0.333333  0.000000    0.00115741   5 t-inv T
 -0.416667  0.000000  0.000000    0.00115741   6 t-inv T
  0.000000  0.416667  0.000000    0.00115741   6 t-inv T
  0.416667 -0.416667  0.000000    0.00115741   6 t-inv T
 -0.166667 -0.083333  0.000000    0.00115741   9 t-inv T
 -0.083333  0.250000  0.000000    0.00115741   9 t-inv T
  0.250000 -0.166667  0.000000    0.00115741   9 t-inv T
  0.166667 -0.250000  0.000000    0.00115741   9 t-inv T
  0.083333  0.166667  0.000000    0.00115741   9 t-inv T
 -0.250000  0.083333  0.000000    0.00115741   9 t-inv T
 -0.250000 -0.083333  0.000000    0.00115741  10 t-inv T
 -0.083333  0.333333  0.000000    0.00115741  10 t-inv T
  0.333333 -0.250000  0.000000    0.00115741  10 t-inv T
  0.250000 -0.333333  0.000000    0.00115741  10 t-inv T
  0.083333  0.250000  0.000000    0.00115741  10 t-inv T
 -0.333333  0.083333  0.000000    0.00115741  10 t-inv T
 -0.333333 -0.083333  0.000000    0.00115741  11 t-inv T
 -0.083333  0.416667  0.000000    0.00115741  11 t-inv T
  0.416667 -0.333333  0.000000    0.00115741  11 t-inv T
  0.333333 -0.416667  0.000000    0.00115741  11 t-inv T
  0.083333  0.333333  0.000000    0.00115741  11 t-inv T
 -0.416667  0.083333  0.000000    0.00115741  11 t-inv T
 -0.416667 -0.083333  0.000000    0.00115741  12 t-inv T
 -0.083333  0.500000  0.000000    0.00115741  12 t-inv T
  0.500000 -0.416667  0.000000    0.00115741  12 t-inv T
  0.416667 -0.500000  0.000000    0.00115741  12 t-inv T
  0.083333  0.416667  0.000000    0.00115741  12 t-inv T
 -0.500000  0.083333  0.000000    0.00115741  12 t-inv T
 -0.250000 -0.166667  0.000000    0.00115741  14 t-inv T
 -0.166667  0.416667  0.000000    0.00115741  14 t-inv T
  0.416667 -0.250000  0.000000    0.00115741  14 t-inv T
  0.250000 -0.416667  0.000000    0.00115741  14 t-inv T
  0.166667  0.250000  0.000000    0.00115741  14 t-inv T
 -0.416667  0.166667  0.000000    0.00115741  14 t-inv T
 -0.333333 -0.166667  0.000000    0.00115741  15 t-inv T
 -0.166667  0.500000  0.000000    0.00115741  15 t-inv T
  0.500000 -0.333333  0.000000    0.00115741  15 t-inv T
  0.333333 -0.500000  0.000000    0.00115741  15 t-inv T
  0.166667  0.333333  0.000000    0.00115741  15 t-inv T
 -0.500000  0.166667  0.000000    0.00115741  15 t-inv T
 -0.333333 -0.250000  0.000000    0.00115741  18 t-inv T
 -0.250000  0.583333  0.000000    0.00115741  18 t-inv T
  0.583333 -0.333333  0.000000    0.00115741  18 t-inv T
  0.333333 -0.583333  0.000000    0.00115741  18 t-inv T
  0.250000  0.333333  0.000000    0.00115741  18 t-inv T
 -0.583333  0.250000  0.000000    0.00115741  18 t-inv T
 -0.083333  0.000000 -0.166667    0.00115741  21 t-inv T
  0.000000  0.083333  0.166667    0.00115741  21 t-inv T
  0.083333 -0.083333 -0.166667    0.00115741  21 t-inv T
 -0.083333  0.000000  0.166667    0.00115741  21 t-inv T
  0.000000  0.083333 -0.166667    0.00115741  21 t-inv T
  0.083333 -0.083333  0.166667    0.00115741  21 t-inv T
 -0.166667  0.000000 -0.166667    0.00115741  22 t-inv T
  0.000000  0.166667  0.166667    0.00115741  22 t-inv T
  0.166667 -0.166667 -0.166667    0.00115741  22 t-inv T
 -0.166667  0.000000  0.166667    0.00115741  22 t-inv T
  0.000000  0.166667 -0.166667    0.00115741  22 t-inv T
  0.166667 -0.166667  0.166667    0.00115741  22 t-inv T
 -0.250000  0.000000 -0.166667    0.00115741  23 t-inv T
  0.000000  0.250000  0.166667    0.00115741  23 t-inv T
  0.250000 -0.250000 -0.166667    0.00115741  23 t-inv T
 -0.250000  0.000000  0.166667    0.00115741  23 t-inv T
  0.000000  0.250000 -0.166667    0.00115741  23 t-inv T
  0.250000 -0.250000  0.166667    0.00115741  23 t-inv T
 -0.333333  0.000000 -0.166667    0.00115741  24 t-inv T
  0.000000  0.333333  0.166667    0.00115741  24 t-inv T
  0.333333 -0.333333 -0.166667    0.00115741  24 t-inv T
 -0.333333  0.000000  0.166667    0.00115741  24 t-inv T
  0.000000  0.333333 -0.166667    0.00115741  24 t-inv T
  0.333333 -0.333333  0.166667    0.00115741  24 t-inv T
 -0.416667  0.000000 -0.166667    0.00115741  25 t-inv T
  0.000000  0.416667  0.166667    0.00115741  25 t-inv T
  0.416667 -0.416667 -0.166667    0.00115741  25 t-inv T
 -0.416667  0.000000  0.166667    0.00115741  25 t-inv T
  0.000000  0.416667 -0.166667    0.00115741  25 t-inv T
  0.416667 -0.416667  0.166667    0.00115741  25 t-inv T
 -0.166667 -0.083333 -0.166667    0.00115741  28 t-inv T
 -0.083333  0.250000  0.166667    0.00115741  28 t-inv T
  0.250000 -0.166667 -0.166667    0.00115741  28 t-inv T
 -0.166667 -0.083333  0.166667    0.00115741  28 t-inv T
 -0.083333  0.250000 -0.166667    0.00115741  28 t-inv T
  0.250000 -0.166667  0.166667    0.00115741  28 t-inv T
  0.166667 -0.250000 -0.166667    0.00115741  28 t-inv T
  0.083333  0.166667  0.166667    0.00115741  28 t-inv T
 -0.250000  0.083333 -0.166667    0.00115741  28 t-inv T
  0.166667 -0.250000  0.166667    0.00115741  28 t-inv T
  0.083333  0.166667 -0.166667    0.00115741  28 t-inv T
 -0.250000  0.083333  0.166667    0.00115741  28 t-inv T
 -0.250000 -0.083333 -0.166667    0.00115741  29 t-inv T
 -0.083333  0.333333  0.166667    0.00115741  29 t-inv T
  0.333333 -0.250000 -0.166667    0.00115741  29 t-inv T
 -0.250000 -0.083333  0.166667    0.00115741  29 t-inv T
 -0.083333  0.333333 -0.166667    0.00115741  29 t-inv T
  0.333333 -0.250000  0.166667    0.00115741  29 t-inv T
  0.250000 -0.333333 -0.166667    0.00115741  29 t-inv T
  0.083333  0.250000  0.166667    0.00115741  29 t-inv T
 -0.333333  0.083333 -0.166667    0.00115741  29 t-inv T
  0.250000 -0.333333  0.166667    0.00115741  29 t-inv T
  0.083333  0.250000 -0.166667    0.00115741  29 t-inv T
 -0.333333  0.083333  0.166667    0.00115741  29 t-inv T
 -0.333333 -0.083333 -0.166667    0.00115741  30 t-inv T
 -0.083333  0.416667  0.166667    0.00115741  30 t-inv T
  0.416667 -0.333333 -0.166667    0.00115741  30 t-inv T
 -0.333333 -0.083333  0.166667    0.00115741  30 t-inv T
 -0.083333  0.416667 -0.166667    0.00115741  30 t-inv T
  0.416667 -0.333333  0.166667    0.00115741  30 t-inv T
  0.333333 -0.416667 -0.166667    0.00115741  30 t-inv T
  0.083333  0.333333  0.166667    0.00115741  30 t-inv T
 -0.416667  0.083333 -0.166667    0.00115741  30 t-inv T
  0.333333 -0.416667  0.166667    0.00115741  30 t-inv T
  0.083333  0.333333 -0.166667    0.00115741  30 t-inv T
 -0.416667  0.083333  0.166667    0.00115741  30 t-inv T
 -0.416667 -0.083333 -0.166667    0.00115741  31 t-inv T
 -0.083333  0.500000  0.166667    0.00115741  31 t-inv T
  0.500000 -0.416667 -0.166667    0.00115741  31 t-inv T
 -0.416667 -0.083333  0.166667    0.00115741  31 t-inv T
 -0.083333  0.500000 -0.166667    0.00115741  31 t-inv T
  0.500000 -0.416667  0.166667    0.00115741  31 t-inv T
  0.416667 -0.500000 -0.166667    0.00115741  31 t-inv T
  0.083333  0.416667  0.166667    0.00115741  31 t-inv T
 -0.500000  0.083333 -0.166667    0.00115741  31 t-inv T
  0.416667 -0.500000  0.166667    0.00115741  31 t-inv T
  0.083333  0.416667 -0.166667    0.00115741  31 t-inv T
 -0.500000  0.083333  0.166667    0.00115741  31 t-inv T
 -0.250000 -0.166667 -0.166667    0.00115741  33 t-inv T
 -0.166667  0.416667  0.166667    0.00115741  33 t-inv T
  0.416667 -0.250000 -0.166667    0.00115741  33 t-inv T
 -0.250000 -0.166667  0.166667    0.00115741  33 t-inv T
 -0.166667  0.416667 -0.166667    0.00115741  33 t-inv T
  0.416667 -0.250000  0.166667    0.00115741  33 t-inv T
  0.250000 -0.416667 -0.166667    0.00115741  33 t-inv T
  0.166667  0.250000  0.166667    0.00115741  33 t-inv T
 -0.416667  0.166667 -0.166667    0.00115741  33 t-inv T
  0.250000 -0.416667  0.166667    0.00115741  33 t-inv T
  0.166667  0.250000 -0.166667    0.00115741  33 t-inv T
 -0.416667  0.166667  0.166667    0.00115741  33 t-inv T
 -0.333333 -0.166667 -0.166667    0.00115741  34 t-inv T
 -0.166667  0.500000  0.166667    0.00115741  34 t-inv T
  0.500000 -0.333333 -0.166667    0.00115741  34 t-inv T
 -0.333333 -0.166667  0.166667    0.00115741  34 t-inv T
 -0.166667  0.500000 -0.166667    0.00115741  34 t-inv T
  0.500000 -0.333333  0.166667    0.00115741  34 t-inv T
  0.333333 -0.500000 -0.166667    0.00115741  34 t-inv T
  0.166667  0.333333  0.166667    0.00115741  34 t-inv T
 -0.500000  0.166667 -0.166667    0.00115741  34 t-inv T
  0.333333 -0.500000  0.166667    0.00115741  34 t-inv T
  0.166667  0.333333 -0.166667    0.00115741  34 t-inv T
 -0.500000  0.166667  0.166667    0.00115741  34 t-inv T
 -0.333333 -0.250000 -0.166667    0.00115741  37 t-inv T
 -0.250000  0.583333  0.166667    0.00115741  37 t-inv T
  0.583333 -0.333333 -0.166667    0.00115741  37 t-inv T
 -0.333333 -0.250000  0.166667    0.00115741  37 t-inv T
 -0.250000  0.583333 -0.166667    0.00115741  37 t-inv T
  0.583333 -0.333333  0.166667    0.00115741  37 t-inv T
  0.333333 -0.583333 -0.166667    0.00115741  37 t-inv T
  0.250000  0.333333  0.166667    0.00115741  37 t-inv T
 -0.583333  0.250000 -0.166667    0.00115741  37 t-inv T
  0.333333 -0.583333  0.166667    0.00115741  37 t-inv T
  0.250000  0.333333 -0.166667    0.00115741  37 t-inv T
 -0.583333  0.250000  0.166667    0.00115741  37 t-inv T
 -0.083333  0.000000 -0.333333    0.00115741  40 t-inv T
  0.000000  0.083333  0.333333    0.00115741  40 t-inv T
  0.083333 -0.083333 -0.333333    0.00115741  40 t-inv T
 -0.083333  0.000000  0.333333    0.00115741  40 t-inv T
  0.000000  0.083333 -0.333333    0.00115741  40 t-inv T
  0.083333 -0.083333  0.333333    0.00115741  40 t-inv T
 -0.166667  0.000000 -0.333333    0.00115741  41 t-inv T
  0.000000  0.166667  0.333333    0.00115741  41 t-inv T
  0.166667 -0.166667 -0.333333    0.00115741  41 t-inv T
 -0.166667  0.000000  0.333333    0.00115741  41 t-inv T
  0.000000  0.166667 -0.333333    0.00115741  41 t-inv T
  0.166667 -0.166667  0.333333    0.00115741  41 t-inv T
 -0.250000  0.000000 -0.333333    0.00115741  42 t-inv T
  0.000000  0.250000  0.333333    0.00115741  42 t-inv T
  0.250000 -0.250000 -0.333333    0.00115741  42 t-inv T
 -0.250000  0.000000  0.333333    0.00115741  42 t-inv T
  0.000000  0.250000 -0.333333    0.00115741  42 t-inv T
  0.250000 -0.250000  0.333333    0.00115741  42 t-inv T
 -0.333333  0.000000 -0.333333    0.00115741  43 t-inv T
  0.000000  0.333333  0.333333    0.00115741  43 t-inv T
  0.333333 -0.333333 -0.333333    0.00115741  43 t-inv T
 -0.333333  0.000000  0.333333    0.00115741  43 t-inv T
  0.000000  0.333333 -0.333333    0.00115741  43 t-inv T
  0.333333 -0.333333  0.333333    0.00115741  43 t-inv T
 -0.416667  0.000000 -0.333333    0.00115741  44 t-inv T
  0.000000  0.416667  0.333333    0.00115741  44 t-inv T
  0.416667 -0.416667 -0.333333    0.00115741  44 t-inv T
 -0.416667  0.000000  0.333333    0.00115741  44 t-inv T
  0.000000  0.416667 -0.333333    0.00115741  44 t-inv T
  0.416667 -0.416667  0.333333    0.00115741  44 t-inv T
 -0.166667 -0.083333 -0.333333    0.00115741  47 t-inv T
 -0.083333  0.250000  0.333333    0.00115741  47 t-inv T
  0.250000 -0.166667 -0.333333    0.00115741  47 t-inv T
 -0.166667 -0.083333  0.333333    0.00115741  47 t-inv T
 -0.083333  0.250000 -0.333333    0.00115741  47 t-inv T
  0.250000 -0.166667  0.333333    0.00115741  47 t-inv T
  0.166667 -0.250000 -0.333333    0.00115741  47 t-inv T
  0.083333  0.166667  0.333333    0.00115741  47 t-inv T
 -0.250000  0.083333 -0.333333    0.00115741  47 t-inv T
  0.166667 -0.250000  0.333333    0.00115741  47 t-inv T
  0.083333  0.166667 -0.333333    0.00115741  47 t-inv T
 -0.250000  0.083333  0.333333    0.00115741  47 t-inv T
 -0.250000 -0.083333 -0.333333    0.00115741  48 t-inv T
 -0.083333  0.333333  0.333333    0.00115741  48 t-inv T
  0.333333 -0.250000 -0.333333    0.00115741  48 t-inv T
 -0.250000 -0.083333  0.333333    0.00115741  48 t-inv T
 -0.083333  0.333333 -0.333333    0.00115741  48 t-inv T
  0.333333 -0.250000  0.333333    0.00115741  48 t-inv T
  0.250000 -0.333333 -0.333333    0.00115741  48 t-inv T
  0.083333  0.250000  0.333333    0.00115741  48 t-inv T
 -0.333333  0.083333 -0.333333    0.00115741  48 t-inv T
  0.250000 -0.333333  0.333333    0.00115741  48 t-inv T
  0.083333  0.250000 -0.333333    0.00115741  48 t-inv T
 -0.333333  0.083333  0.333333    0.00115741  48 t-inv T
 -0.333333 -0.083333 -0.333333    0.00115741  49 t-inv T
 -0.083333  0.416667  0.333333    0.00115741  49 t-inv T
  0.416667 -0.333333 -0.333333    0.00115741  49 t-inv T
 -0.333333 -0.083333  0.333333    0.00115741  49 t-inv T
 -0.083333  0.416667 -0.333333    0.00115741  49 t-inv T
  0.416667 -0.333333  0.333333    0.00115741  49 t-inv T
  0.333333 -0.416667 -0.333333    0.00115741  49 t-inv T
  0.083333  0.333333  0.333333    0.00115741  49 t-inv T
 -0.416667  0.083333 -0.333333    0.00115741  49 t-inv T
  0.333333 -0.416667  0.333333    0.00115741  49 t-inv T
  0.083333  0.333333 -0.333333    0.00115741  49 t-inv T
 -0.416667  0.083333  0.333333    0.00115741  49 t-inv T
 -0.416667 -0.083333 -0.333333    0.00115741  50 t-inv T
 -0.083333  0.500000  0.333333    0.00115741  50 t-inv T
  0.500000 -0.416667 -0.333333    0.00115741  50 t-inv T
 -0.416667 -0.083333  0.333333    0.00115741  50 t-inv T
 -0.083333  0.500000 -0.333333    0.00115741  50 t-inv T
  0.500000 -0.416667  0.333333    0.00115741  50 t-inv T
  0.416667 -0.500000 -0.333333    0.00115741  50 t-inv T
  0.083333  0.416667  0.333333    0.00115741  50 t-inv T
 -0.500000  0.083333 -0.333333    0.00115741  50 t-inv T
  0.416667 -0.500000  0.333333    0.00115741  50 t-inv T
  0.083333  0.416667 -0.333333    0.00115741  50 t-inv T
 -0.500000  0.083333  0.333333    0.00115741  50 t-inv T
 -0.250000 -0.166667 -0.333333    0.00115741  52 t-inv T
 -0.166667  0.416667  0.333333    0.00115741  52 t-inv T
  0.416667 -0.250000 -0.333333    0.00115741  52 t-inv T
 -0.250000 -0.166667  0.333333    0.00115741  52 t-inv T
 -0.166667  0.416667 -0.333333    0.00115741  52 t-inv T
  0.416667 -0.250000  0.333333    0.00115741  52 t-inv T
  0.250000 -0.416667 -0.333333    0.00115741  52 t-inv T
  0.166667  0.250000  0.333333    0.00115741  52 t-inv T
 -0.416667  0.166667 -0.333333    0.00115741  52 t-inv T
  0.250000 -0.416667  0.333333    0.00115741  52 t-inv T
  0.166667  0.250000 -0.333333    0.00115741  52 t-inv T
 -0.416667  0.166667  0.333333    0.00115741  52 t-inv T
 -0.333333 -0.166667 -0.333333    0.00115741  53 t-inv T
 -0.166667  0.500000  0.333333    0.00115741  53 t-inv T
  0.500000 -0.333333 -0.333333    0.00115741  53 t-inv T
 -0.333333 -0.166667  0.333333    0.00115741  53 t-inv T
 -0.166667  0.500000 -0.333333    0.00115741  53 t-inv T
  0.500000 -0.333333  0.333333    0.00115741  53 t-inv T
  0.333333 -0.500000 -0.333333    0.00115741  53 t-inv T
  0.166667  0.333333  0.333333    0.00115741  53 t-inv T
 -0.500000  0.166667 -0.333333    0.00115741  53 t-inv T
  0.333333 -0.500000  0.333333    0.00115741  53 t-inv T
  0.166667  0.333333 -0.333333    0.00115741  53 t-inv T
 -0.500000  0.166667  0.333333    0.00115741  53 t-inv T
 -0.333333 -0.250000 -0.333333    0.00115741  56 t-inv T
 -0.250000  0.583333  0.333333    0.00115741  56 t-inv T
  0.583333 -0.333333 -0.333333    0.00115741  56 t-inv T
 -0.333333 -0.250000  0.333333    0.00115741  56 t-inv T
 -0.250000  0.583333 -0.333333    0.00115741  56 t-inv T
  0.583333 -0.333333  0.333333    0.00115741  56 t-inv T
  0.333333 -0.583333 -0.333333    0.00115741  56 t-inv T
  0.250000  0.333333  0.333333    0.00115741  56 t-inv T
 -0.583333  0.250000 -0.333333    0.00115741  56 t-inv T
  0.333333 -0.583333  0.333333    0.00115741  56 t-inv T
  0.250000  0.333333 -0.333333    0.00115741  56 t-inv T
 -0.583333  0.250000  0.333333    0.00115741  56 t-inv T
 -0.083333  0.000000 -0.500000    0.00115741  59 t-inv T
  0.000000  0.083333  0.500000    0.00115741  59 t-inv T
  0.083333 -0.083333 -0.500000    0.00115741  59 t-inv T
 -0.166667  0.000000 -0.500000    0.00115741  60 t-inv T
  0.000000  0.166667  0.500000    0.00115741  60 t-inv T
  0.166667 -0.166667 -0.500000    0.00115741  60 t-inv T
 -0.250000  0.000000 -0.500000    0.00115741  61 t-inv T
  0.000000  0.250000  0.500000    0.00115741  61 t-inv T
  0.250000 -0.250000 -0.500000    0.00115741  61 t-inv T
 -0.333333  0.000000 -0.500000    0.00115741  62 t-inv T
  0.000000  0.333333  0.500000    0.00115741  62 t-inv T
  0.333333 -0.333333 -0.500000    0.00115741  62 t-inv T
 -0.416667  0.000000 -0.500000    0.00115741  63 t-inv T
  0.000000  0.416667  0.500000    0.00115741  63 t-inv T
  0.416667 -0.416667 -0.500000    0.00115741  63 t-inv T
 -0.166667 -0.083333 -0.500000    0.00115741  66 t-inv T
 -0.083333  0.250000  0.500000    0.00115741  66 t-inv T
  0.250000 -0.166667 -0.500000    0.00115741  66 t-inv T
  0.166667 -0.250000 -0.500000    0.00115741  66 t-inv T
  0.083333  0.166667  0.500000    0.00115741  66 t-inv T
 -0.250000  0.083333 -0.500000    0.00115741  66 t-inv T
 -0.250000 -0.083333 -0.500000    0.00115741  67 t-inv T
 -0.083333  0.333333  0.500000    0.00115741  67 t-inv T
  0.333333 -0.250000 -0.500000    0.00115741  67 t-inv T
  0.250000 -0.333333 -0.500000    0.00115741  67 t-inv T
  0.083333  0.250000  0.500000    0.00115741  67 t-inv T
 -0.333333  0.083333 -0.500000    0.00115741  67 t-inv T
 -0.333333 -0.083333 -0.500000    0.00115741  68 t-inv T
 -0.083333  0.416667  0.500000    0.00115741  68 t-inv T
  0.416667 -0.333333 -0.500000    0.00115741  68 t-inv T
  0.333333 -0.416667 -0.500000    0.00115741  68 t-inv T
  0.083333  0.333333  0.500000    0.00115741  68 t-inv T
 -0.416667  0.083333 -0.500000    0.00115741  68 t-inv T
 -0.416667 -0.083333 -0.500000    0.00115741  69 t-inv T
 -0.083333  0.500000  0.500000    0.00115741  69 t-inv T
  0.500000 -0.416667 -0.500000    0.00115741  69 t-inv T
  0.416667 -0.500000 -0.500000    0.00115741  69 t-inv T
  0.083333  0.416667  0.500000    0.00115741  69 t-inv T
 -0.500000  0.083333 -0.500000    0.00115741  69 t-inv T
 -0.250000 -0.166667 -0.500000    0.00115741  71 t-inv T
 -0.166667  0.416667  0.500000    0.00115741  71 t-inv T
  0.416667 -0.250000 -0.500000    0.00115741  71 t-inv T
  0.250000 -0.416667 -0.500000    0.00115741  71 t-inv T
  0.166667  0.250000  0.500000    0.00115741  71 t-inv T
 -0.416667  0.166667 -0.500000    0.00115741  71 t-inv T
 -0.333333 -0.166667 -0.500000    0.00115741  72 t-inv T
 -0.166667  0.500000  0.500000    0.00115741  72 t-inv T
  0.500000 -0.333333 -0.500000    0.00115741  72 t-inv T
  0.333333 -0.500000 -0.500000    0.00115741  72 t-inv T
  0.166667  0.333333  0.500000    0.00115741  72 t-inv T
 -0.500000  0.166667 -0.500000    0.00115741  72 t-inv T
 -0.333333 -0.250000 -0.500000    0.00115741  75 t-inv T
 -0.250000  0.583333  0.500000    0.00115741  75 t-inv T
  0.583333 -0.333333 -0.500000    0.00115741  75 t-inv T
  0.333333 -0.583333 -0.500000    0.00115741  75 t-inv T
  0.250000  0.333333  0.500000    0.00115741  75 t-inv T
 -0.583333  0.250000 -0.500000    0.00115741  75 t-inv T


--------------------------------------------------------------------------------------------------------




 Dimension of arrays:
   k-points           NKPTS =    232   k-points in BZ     NKDIM =   1020   number of bands    NBANDS=     24
   number of dos      NEDOS =    301   number of ions     NIONS =      3
   non local maximal  LDIM  =      6   non local SUM 2l+1 LMDIM =     18
   total plane-waves  NPLWV =  40960
   max r-space proj   IRMAX =      1   max aug-charges    IRDMAX= 185502
   dimension x,y,z NGX =    32 NGY =   32 NGZ =   40
   dimension x,y,z NGXF=    64 NGYF=   64 NGZF=   80
   support grid    NGXF=   128 NGYF=  128 NGZF=  160
   ions per type =               1   1   1
 NGX,Y,Z   is equivalent  to a cutoff of  12.56, 12.56, 12.56 a.u.
 NGXF,Y,Z  is equivalent  to a cutoff of  25.12, 25.12, 25.11 a.u.


 I would recommend the setting:
   dimension x,y,z NGX =    32 NGY =   32 NGZ =   39
 SYSTEM =  band                                    
 POSCAR =  Primitive Cell                          

 Startparameter for this run:
   NWRITE =      2    write-flag & timer
   PREC   = accura    normal or accurate (medium, high low for compatibility)
   ISTART =      1    job   : 0-new  1-cont  2-samecut
   ICHARG =      1    charge: 1-file 2-atom 10-const
   ISPIN  =      2    spin polarized calculation?
   LNONCOLLINEAR =      F non collinear calculations
   LSORBIT =      F    spin-orbit coupling
   INIWAV =      1    electr: 0-lowe 1-rand  2-diag
   LASPH  =      F    aspherical Exc in radial PAW
   METAGGA=      F    non-selfconsistent MetaGGA calc.

 Electronic Relaxation 1
   ENCUT  =  520.0 eV  38.22 Ry    6.18 a.u.   7.88  7.88  9.85*2*pi/ulx,y,z
   ENINI  =  520.0     initial cutoff
   ENAUG  =  575.9 eV  augmentation charge cutoff
   NELM   =    140;   NELMIN=  6; NELMDL=  0     # of ELM steps 
   EDIFF  = 0.1E-03   stopping-criterion for ELM
   LREAL  =      F    real-space projection
   NLSPLINE    = F    spline interpolate recip. space projectors
   LCOMPAT=      F    compatible to vasp.4.4
   GGA_COMPAT  = T    GGA compatible to vasp.4.4-vasp.4.6
   LMAXPAW     = -100 max onsite density
   LMAXMIX     =    2 max onsite mixed and CHGCAR
   VOSKOWN=      0    Vosko Wilk Nusair interpolation
   ROPT   =    0.00000   0.00000   0.00000
 Ionic relaxation
   EDIFFG = -.1E-01   stopping-criterion for IOM
   NSW    =      0    number of steps for IOM
   NBLOCK =      1;   KBLOCK =      1    inner block; outer block 
   IBRION =     -1    ionic relax: 0-MD 1-quasi-New 2-CG
   NFREE  =      0    steps in history (QN), initial steepest desc. (CG)
   ISIF   =      2    stress and relaxation
[...]

 k-point   224 :       0.3333    0.3333    0.3077
  band No.  band energies     occupation 
      1     -32.2230      1.00000
      2     -14.4600      1.00000
      3     -14.4524      1.00000
      4     -14.3294      1.00000
      5      -9.8833      1.00000
      6      -7.7240      1.00000
      7      -7.6824      1.00000
      8      -7.6495      1.00000
      9      -7.6129      1.00000
     10      -7.0554      1.00000
     11      -3.8913      1.00000
     12      -2.0197      1.00000
     13       0.3015      1.00000
     14       3.1764      0.00000
     15       6.6552      0.00000
     16       7.1675      0.00000
     17       7.1997      0.00000
     18       8.7867      0.00000
     19       8.9030      0.00000
     20       9.1085      0.00000
     21      10.4510      0.00000
     22      10.9669      0.00000
     23      10.9884      0.00000
     24      11.8064      0.00000

 k-point   225 :       0.3333    0.3333    0.2692
  band No.  band energies     occupation 
      1     -32.2231      1.00000
      2     -14.4617      1.00000
      3     -14.4533      1.00000
      4     -14.3270      1.00000
      5      -9.8805      1.00000
      6      -7.7244      1.00000
      7      -7.6831      1.00000
      8      -7.6484      1.00000
      9      -7.6131      1.00000
     10      -7.0546      1.00000
     11      -3.8893      1.00000
     12      -2.0541      1.00000
     13       0.3494      1.00000
     14       3.2654      0.00000
     15       6.8481      0.00000
     16       6.9186      0.00000
     17       6.9747      0.00000
     18       8.8437      0.00000
     19       8.8843      0.00000
     20       8.9930      0.00000
     21      10.4644      0.00000
     22      10.9773      0.00000
     23      11.1950      0.00000
     24      11.8583      0.00000

 k-point   226 :       0.3333    0.3333    0.2308
  band No.  band energies     occupation 
      1     -32.2231      1.00000
      2     -14.4633      1.00000
      3     -14.4543      1.00000
      4     -14.3247      1.00000
      5      -9.8775      1.00000
      6      -7.7249      1.00000
      7      -7.6839      1.00000
      8      -7.6472      1.00000
      9      -7.6134      1.00000
     10      -7.0538      1.00000
     11      -3.8874      1.00000
     12      -2.0890      1.00000
     13       0.4004      1.00000
     14       3.3660      0.00000
     15       6.6802      0.00000
     16       6.7384      0.00000
     17       7.0674      0.00000
     18       8.8909      0.00000
     19       8.8905      0.00000
     20       8.9165      0.00000
     21      10.4136      0.00000
     22      10.9170      0.00000
     23      11.3783      0.00000
     24      11.9429      0.00000

 k-point   227 :       0.3333    0.3333    0.1923
  band No.  band energies     occupation 
      1     -32.2232      1.00000
      2     -14.4649      1.00000
      3     -14.4552      1.00000
      4     -14.3223      1.00000
      5      -9.8747      1.00000
      6      -7.7253      1.00000
      7      -7.6846      1.00000
      8      -7.6461      1.00000
      9      -7.6136      1.00000
     10      -7.0530      1.00000
     11      -3.8854      1.00000
     12      -2.1225      1.00000
     13       0.4518      1.00000
     14       3.4750      0.00000
     15       6.4623      0.00000
     16       6.5036      0.00000
     17       7.3090      0.00000
     18       8.8031      0.00000
     19       8.9122      0.00000
     20       9.0007      0.00000
     21      10.2957      0.00000
     22      10.8155      0.00000
     23      11.5353      0.00000
     24      12.0336      0.00000

 k-point   228 :       0.3333    0.3333    0.1538
  band No.  band energies     occupation 
      1     -32.2232      1.00000
      2     -14.4664      1.00000
      3     -14.4560      1.00000
      4     -14.3202      1.00000
      5      -9.8721      1.00000
      6      -7.7257      1.00000
      7      -7.6852      1.00000
      8      -7.6451      1.00000
      9      -7.6139      1.00000
     10      -7.0522      1.00000
     11      -3.8837      1.00000
     12      -2.1526      1.00000
     13       0.5005      1.00000
     14       3.5871      0.00000
     15       6.2727      0.00000
     16       6.2819      0.00000
     17       7.5675      0.00000
     18       8.7301      0.00000
     19       8.9417      0.00000
     20       9.0915      0.00000
     21      10.1182      0.00000
     22      10.6965      0.00000
     23      11.6646      0.00000
     24      12.1142      0.00000

 k-point   229 :       0.3333    0.3333    0.1154
  band No.  band energies     occupation 
      1     -32.2232      1.00000
      2     -14.4677      1.00000
      3     -14.4567      1.00000
      4     -14.3184      1.00000
      5      -9.8699      1.00000
      6      -7.7260      1.00000
      7      -7.6858      1.00000
      8      -7.6441      1.00000
      9      -7.6141      1.00000
     10      -7.0516      1.00000
     11      -3.8822      1.00000
     12      -2.1777      1.00000
     13       0.5431      1.00000
     14       3.6951      0.00000
     15       6.0851      0.00000
     16       6.1179      0.00000
     17       7.8353      0.00000
     18       8.6721      0.00000
     19       8.9724      0.00000
     20       9.1827      0.00000
     21       9.8983      0.00000
     22      10.5766      0.00000
     23      11.7655      0.00000
     24      12.1212      0.00000

 k-point   230 :       0.3333    0.3333    0.0769
  band No.  band energies     occupation 
      1     -32.2233      1.00000
      2     -14.4686      1.00000
      3     -14.4572      1.00000
      4     -14.3171      1.00000
      5      -9.8683      1.00000
      6      -7.7263      1.00000
      7      -7.6862      1.00000
      8      -7.6435      1.00000
      9      -7.6143      1.00000
     10      -7.0512      1.00000
     11      -3.8811      1.00000
     12      -2.1967      1.00000
     13       0.5764      1.00000
     14       3.7882      0.00000
     15       5.9268      0.00000
     16       6.0032      0.00000
     17       8.0988      0.00000
     18       8.6281      0.00000
     19       8.9989      0.00000
     20       9.2647      0.00000
     21       9.6619      0.00000
     22      10.4710      0.00000
     23      11.8394      0.00000
     24      12.0366      0.00000

 k-point   231 :       0.3333    0.3333    0.0385
  band No.  band energies     occupation 
      1     -32.2233      1.00000
      2     -14.4692      1.00000
      3     -14.4575      1.00000
      4     -14.3162      1.00000
      5      -9.8673      1.00000
      6      -7.7264      1.00000
      7      -7.6865      1.00000
      8      -7.6430      1.00000
      9      -7.6144      1.00000
     10      -7.0509      1.00000
     11      -3.8804      1.00000
     12      -2.2084      1.00000
     13       0.5976      1.00000
     14       3.8530      0.00000
     15       5.8222      0.00000
     16       5.9327      0.00000
     17       8.3273      0.00000
     18       8.5948      0.00000
     19       9.0168      0.00000
     20       9.3243      0.00000
     21       9.4528      0.00000
     22      10.3961      0.00000
     23      11.8884      0.00000
     24      11.9789      0.00000

 k-point   232 :       0.3333    0.3333    0.0000
  band No.  band energies     occupation 
      1     -32.2233      1.00000
      2     -14.4694      1.00000
      3     -14.4576      1.00000
      4     -14.3159      1.00000
      5      -9.8669      1.00000
      6      -7.7265      1.00000
      7      -7.6865      1.00000
      8      -7.6429      1.00000
      9      -7.6144      1.00000
     10      -7.0508      1.00000
     11      -3.8802      1.00000
     12      -2.2124      1.00000
     13       0.6049      1.00000
     14       3.8765      0.00000
     15       5.7854      0.00000
     16       5.9089      0.00000
     17       8.4387      0.00000
     18       8.5722      0.00000
     19       9.0231      0.00000
     20       9.3466      0.00000
     21       9.3585      0.00000
     22      10.3685      0.00000
     23      11.9110      0.00000
     24      11.9530      0.00000


--------------------------------------------------------------------------------------------------------


 soft charge-density along one line, spin component           1
         0         1         2         3         4         5         6         7         8         9
 total charge-density along one line
 
 soft charge-density along one line, spin component           2
         0         1         2         3         4         5         6         7         8         9
 total charge-density along one line
 
 pseudopotential strength for first ion, spin component:           1
-14.820   0.879   0.000  -0.000  -0.000   0.000  -0.000  -0.000
  0.879  -2.688   0.000   0.000  -0.000   0.000   0.000  -0.000
  0.000   0.000 -15.893   0.000   0.000 -15.678   0.000   0.000
 -0.000   0.000   0.000 -15.880  -0.000   0.000 -15.665  -0.000
 -0.000  -0.000   0.000  -0.000 -15.893   0.000  -0.000 -15.678
  0.000   0.000 -15.678   0.000   0.000 -15.458   0.000   0.000
 -0.000   0.000   0.000 -15.665  -0.000   0.000 -15.445  -0.000
 -0.000  -0.000   0.000  -0.000 -15.678   0.000  -0.000 -15.458
  0.000   0.000  -0.000  -0.000   0.000  -0.000  -0.000   0.000
  0.000   0.000   0.000   0.000  -0.000   0.000   0.000  -0.000
  0.006   0.002  -0.000   0.000   0.000  -0.000   0.000   0.000
 -0.000   0.000  -0.000  -0.000   0.000  -0.000  -0.000   0.000
 -0.000  -0.000   0.000  -0.000  -0.000   0.000  -0.000  -0.000
 pseudopotential strength for first ion, spin component:           2
-14.820   0.879   0.000  -0.000  -0.000   0.000  -0.000  -0.000
  0.879  -2.688   0.000  -0.000  -0.000   0.000  -0.000  -0.000
  0.000   0.000 -15.893  -0.000   0.000 -15.678  -0.000   0.000
 -0.000  -0.000  -0.000 -15.880  -0.000  -0.000 -15.665  -0.000
 -0.000  -0.000   0.000  -0.000 -15.893   0.000  -0.000 -15.678
  0.000   0.000 -15.678  -0.000   0.000 -15.458  -0.000   0.000
 -0.000  -0.000  -0.000 -15.665  -0.000  -0.000 -15.445  -0.000
 -0.000  -0.000   0.000  -0.000 -15.678   0.000  -0.000 -15.458
  0.000   0.000  -0.000  -0.000   0.000  -0.000  -0.000   0.000
  0.000  -0.000  -0.000   0.000  -0.000  -0.000   0.000  -0.000
  0.006   0.002  -0.000  -0.000   0.000  -0.000  -0.000   0.000
 -0.000  -0.000  -0.000  -0.000  -0.000  -0.000  -0.000  -0.000
 -0.000  -0.000   0.000  -0.000  -0.000   0.000  -0.000  -0.000
 total augmentation occupancy for first ion, spin component:           1
  2.006   0.011   0.000  -0.000  -0.000  -0.000   0.000   0.000  -0.000   0.000  -0.004  -0.000   0.000
  0.011   0.341   0.000  -0.000  -0.000  -0.000   0.000   0.000   0.000  -0.000   0.010   0.000  -0.000
  0.000   0.000   2.761  -0.000   0.000  -1.109   0.000  -0.000   0.000  -0.000  -0.000  -0.000  -0.037
 -0.000  -0.000  -0.000   3.396  -0.000   0.000  -1.609   0.000  -0.000  -0.000  -0.000  -0.000  -0.000
 -0.000  -0.000   0.000  -0.000   2.761  -0.000   0.000  -1.109  -0.037  -0.000   0.000   0.000  -0.000
 -0.000  -0.000  -1.109   0.000  -0.000   1.477  -0.000   0.000  -0.000   0.000   0.000  -0.000   0.032
  0.000   0.000   0.000  -1.609   0.000  -0.000   1.845  -0.000   0.000   0.000   0.000   0.000   0.000
  0.000   0.000  -0.000   0.000  -1.109   0.000  -0.000   1.477   0.032  -0.000  -0.000  -0.000   0.000
 -0.000   0.000   0.000  -0.000  -0.037  -0.000   0.000   0.032   0.003   0.000  -0.000  -0.000   0.000
  0.000  -0.000  -0.000  -0.000  -0.000   0.000   0.000  -0.000   0.000   0.011  -0.000  -0.000  -0.000
 -0.004   0.010  -0.000  -0.000   0.000   0.000   0.000  -0.000  -0.000  -0.000   0.002  -0.000   0.000
 -0.000   0.000  -0.000  -0.000   0.000  -0.000   0.000  -0.000  -0.000  -0.000  -0.000   0.011   0.000
  0.000  -0.000  -0.037  -0.000  -0.000   0.032   0.000   0.000   0.000  -0.000   0.000   0.000   0.003
 total augmentation occupancy for first ion, spin component:           2
 -0.000  -0.000  -0.000   0.000   0.000   0.000  -0.000  -0.000  -0.000  -0.000   0.000  -0.000   0.000
 -0.000   0.000   0.000   0.000  -0.000  -0.000  -0.000   0.000   0.000   0.000   0.000   0.000  -0.000
 -0.000   0.000   0.000  -0.000  -0.000  -0.000   0.000  -0.000  -0.000   0.000   0.000   0.000  -0.000
  0.000   0.000  -0.000   0.000  -0.000   0.000  -0.000   0.000   0.000  -0.000   0.000  -0.000   0.000
  0.000  -0.000  -0.000  -0.000   0.000   0.000   0.000  -0.000  -0.000   0.000  -0.000  -0.000   0.000
  0.000  -0.000  -0.000   0.000   0.000   0.000   0.000  -0.000   0.000  -0.000  -0.000  -0.000   0.000
 -0.000  -0.000   0.000  -0.000   0.000   0.000   0.000  -0.000  -0.000  -0.000  -0.000   0.000  -0.000
 -0.000   0.000  -0.000   0.000  -0.000  -0.000  -0.000   0.000   0.000  -0.000   0.000   0.000  -0.000
 -0.000   0.000  -0.000   0.000  -0.000   0.000  -0.000   0.000   0.000   0.000  -0.000   0.000   0.000
 -0.000   0.000   0.000  -0.000   0.000  -0.000  -0.000  -0.000   0.000   0.000   0.000  -0.000  -0.000
  0.000   0.000   0.000   0.000  -0.000  -0.000  -0.000   0.000  -0.000   0.000   0.000   0.000   0.000
 -0.000   0.000   0.000  -0.000  -0.000  -0.000   0.000   0.000   0.000  -0.000   0.000   0.000   0.000
  0.000  -0.000  -0.000   0.000   0.000   0.000  -0.000  -0.000   0.000  -0.000   0.000   0.000   0.000


------------------------ aborting loop because EDIFF is reached ----------------------------------------


 


 total charge     
 
# of ion     s       p       d       tot
----------------------------------------
  1        1.963   5.624   0.023   7.610
  2        0.581   0.437   9.776  10.793
  3        1.214   1.610   0.018   2.842
------------------------------------------------
tot        3.757   7.671   9.817  21.245
 


 magnetization (x)
 
# of ion     s       p       d       tot
----------------------------------------
  1       -0.000   0.000   0.000   0.000
  2       -0.000   0.000  -0.000  -0.000
  3       -0.000  -0.000  -0.000  -0.000
------------------------------------------------
tot       -0.000  -0.000  -0.000  -0.000
 
    FORLOC:  cpu time    0.0100: real time    0.0143
    FORHF :  cpu time18511.1045: real time18523.1784
    FORNL :  cpu time    0.5116: real time    2.3733
    STRESS:  cpu time    1.6967: real time    1.7721
    FORCOR:  cpu time    0.2118: real time    0.2619
    OFIELD:  cpu time    0.0003: real time    0.0218

  FORCE on cell =-STRESS in cart. coord.  units (eV):
  Direction    XX          YY          ZZ          XY          YZ          ZX
  --------------------------------------------------------------------------------------
  Alpha Z   100.21635   100.21635   100.21635
  Ewald    -441.50151  -441.50151  -696.14871    -0.00000     0.00000    -0.00000
  Hartree   368.06656   368.06655   211.12849    -0.00000    -0.00000     0.00000
  E(xc)     -97.25959   -97.25960   -97.35127    -0.00001    -0.00000    -0.00000
  Local    -129.99210  -129.99220   278.69471    -0.00009     0.00000     0.00000
  n-local    50.76263    51.49015    48.97794    -1.32118    -0.26685    -0.21965
  augment    33.62207    33.62215    33.01425     0.00007    -0.00000    -0.00000
  Kinetic   232.48465   235.80948   239.97215    -2.63254    -0.46723    -0.43577
  Fock            NaN         NaN         NaN         NaN         NaN         NaN
  -------------------------------------------------------------------------------------
  Total           NaN         NaN         NaN         NaN         NaN         NaN
  in kB           NaN         NaN         NaN         NaN         NaN         NaN
  external pressure =         NaN kB  Pullay stress =        0.00 kB


 VOLUME and BASIS-vectors are now :
 -----------------------------------------------------------------------------
  energy-cutoff  :      520.00
  volume of cell :       82.30
      direct lattice vectors                 reciprocal lattice vectors
     4.236025650  0.000000000  0.000000000     0.236070336  0.136295272  0.000000000
    -2.118012825  3.668505824  0.000000000     0.000000000  0.272590544  0.000000000
     0.000000000  0.000000000  5.295987377     0.000000000  0.000000000  0.188822202

  length of vectors
     4.236025650  4.236025650  5.295987377     0.272590544  0.272590544  0.188822202


 FORCES acting on ions:
    Electron-Ion                     Ewald-Force                    Non-Local-Force
 -----------------------------------------------------------------------------------------------
   0.906E-07 -.251E-07 -.651E-08   0.960E-12 -.569E-12 -.819E-14   -.239E-17 0.867E-18 0.000E+00
   0.553E-06 -.306E-06 0.396E-07   -.173E-10 0.100E-10 0.641E-14   0.000E+00 -.139E-16 0.000E+00
   -.160E-07 0.556E-07 0.160E-07   0.163E-10 -.944E-11 0.178E-14   -.971E-16 0.000E+00 0.000E+00
 -----------------------------------------------------------------------------------------------
   -.189E-05 0.117E-05 0.500E-07   0.104E-14 -.268E-14 0.394E-30   -.995E-16 -.130E-16 0.000E+00
 
 
 POSITION                                       TOTAL-FORCE (eV/Angst)
 -----------------------------------------------------------------------------------
      0.00000      0.00000      0.00000              NaN           NaN           NaN
      0.00000      2.44567      2.64799              NaN           NaN           NaN
      2.11801      1.22284      2.64799              NaN           NaN           NaN
 -----------------------------------------------------------------------------------
    total drift:                                     NaN           NaN           NaN


--------------------------------------------------------------------------------------------------------



  FREE ENERGIE OF THE ION-ELECTRON SYSTEM (eV)
  ---------------------------------------------------
  free  energy   TOTEN  =        -9.62876445 eV

  energy  without entropy=       -9.62876445  energy(sigma->0) =       -9.62876445
 


--------------------------------------------------------------------------------------------------------


    POTLOK:  cpu time    0.6551: real time    0.8961


--------------------------------------------------------------------------------------------------------


     LOOP+:  cpu time92819.0623: real time92957.8929
    4ORBIT:  cpu time    0.0000: real time    0.0000
 


 total charge     
 
# of ion     s       p       d       tot
----------------------------------------
  1        1.963   5.624   0.023   7.610
  2        0.581   0.437   9.776  10.793
  3        1.214   1.610   0.018   2.842
------------------------------------------------
tot        3.757   7.671   9.817  21.245
 


 magnetization (x)
 
# of ion     s       p       d       tot
----------------------------------------
  1       -0.000   0.000   0.000   0.000
  2       -0.000   0.000  -0.000  -0.000
  3       -0.000  -0.000  -0.000  -0.000
------------------------------------------------
tot       -0.000  -0.000  -0.000  -0.000
 

 total amount of memory used by VASP on root node   102864. kBytes
========================================================================

   base      :      30000. kBytes
   nonl-proj :      35496. kBytes
   fftplans  :       1425. kBytes
   grid      :       1333. kBytes
   one-center:         31. kBytes
   HF        :         64. kBytes
   nonlr-proj:       1377. kBytes
   wavefun   :      33138. kBytes
 
  
  
 General timing and accounting informations for this job:
 ========================================================
  
                  Total CPU time used (sec):    93097.867
                            User time (sec):    93043.411
                          System time (sec):       54.454
                         Elapsed time (sec):    93240.861
  
                   Maximum memory used (kb):      396004.
                   Average memory used (kb):           0.
  
                          Minor page faults:      5099471
                          Major page faults:          189
                 Voluntary context switches:        10828
