 vasp.5.4.1 24Jun15 (build Nov 23 2015 09:58:10) complex                        
  
 executed on             LinuxIFC date 2020.06.20  22:20:50
 running on   24 total cores
 distrk:  each k-point on   24 cores,    1 groups
 distr:  one band on NCORES_PER_BAND=   4 cores,    6 groups


--------------------------------------------------------------------------------------------------------


 INCAR:
 POTCAR:    PAW_PBE Cs_sv 08Apr2002               
 POTCAR:    PAW_PBE F 08Apr2002                   
 POTCAR:    PAW_PBE Li_sv 10Sep2004               
 POTCAR:    PAW_PBE Cs_sv 08Apr2002               
   VRHFIN =Cs: 5s5p6s                                                           
   LEXCH  = PE                                                                  
   EATOM  =   555.6835 eV,   40.8416 Ry                                         
                                                                                
   TITEL  = PAW_PBE Cs_sv 08Apr2002                                             
   LULTRA =        F    use ultrasoft PP ?                                      
   IUNSCR =        1    unscreen: 0-lin 1-nonlin 2-no                           
   RPACOR =    2.200    partial core radius                                     
   POMASS =  132.900; ZVAL   =    9.000    mass and valenz                      
   RCORE  =    2.500    outmost cutoff radius                                   
   RWIGS  =    2.500; RWIGS  =    1.323    wigner-seitz radius (au A)           
   ENMAX  =  220.318; ENMIN  =  165.238 eV                                      
   RCLOC  =    2.207    cutoff for local pot                                    
   LCOR   =        T    correct aug charges                                     
   LPAW   =        T    paw PP                                                  
   EAUG   =  407.933                                                            
   DEXC   =    0.000                                                            
   RMAX   =    2.554    core radius for proj-oper                               
   RAUG   =    1.300    factor for augmentation sphere                          
   RDEP   =    2.590    radius for radial grids                                 
   RDEPT  =    2.117    core radius for aug-charge                              
                                                                                
   Atomic configuration                                                         
   13 entries                                                                   
     n  l   j            E        occ.                                          
     1  0  0.50    -35790.1377   2.0000                                         
     2  0  0.50     -5613.6201   2.0000                                         
     2  1  1.50     -5035.0101   6.0000                                         
     3  0  0.50     -1167.0767   2.0000                                         
     3  1  1.50      -980.9754   6.0000                                         
     3  2  2.50      -708.0703  10.0000                                         
     4  0  0.50      -220.2386   2.0000                                         
     4  1  1.50      -160.7596   6.0000                                         
     4  2  2.50       -74.2354  10.0000                                         
     5  0  0.50       -26.7287   2.0000                                         
     6  0  0.50        -2.0862   1.0000                                         
     5  1  1.50       -13.5159   6.0000                                         
     5  2  2.50        -0.4136   0.0000                                         
   Description                                                                  
     l       E           TYP  RCUT    TYP  RCUT                                 
     0    -26.7287425     23  1.900                                             
     0     -2.0862306     23  1.900                                             
     1    -13.5158719     23  2.500                                             
     1     -2.7211652     23  2.500                                             
     2     -0.4136171     23  2.500                                             
  local pseudopotential read in
  partial core-charges read in
  partial kinetic energy density read in
  atomic valenz-charges read in
  non local Contribution for L=           0  read in
    real space projection operators read in
  non local Contribution for L=           0  read in
    real space projection operators read in
  non local Contribution for L=           1  read in
    real space projection operators read in
  non local Contribution for L=           1  read in
    real space projection operators read in
  non local Contribution for L=           2  read in
    real space projection operators read in
    PAW grid and wavefunctions read in
 
   number of l-projection  operators is LMAX  =           5
   number of lm-projection operators is LMMAX =          13
 
 POTCAR:    PAW_PBE F 08Apr2002                   
   VRHFIN =F: s2p5                                                              
   LEXCH  = PE                                                                  
   EATOM  =   659.6475 eV,   48.4827 Ry                                         
                                                                                
   TITEL  = PAW_PBE F 08Apr2002                                                 
   LULTRA =        F    use ultrasoft PP ?                                      
   IUNSCR =        1    unscreen: 0-lin 1-nonlin 2-no                           
   RPACOR =    1.200    partial core radius                                     
   POMASS =   18.998; ZVAL   =    7.000    mass and valenz                      
   RCORE  =    1.520    outmost cutoff radius                                   
   RWIGS  =    1.500; RWIGS  =    0.794    wigner-seitz radius (au A)           
   ENMAX  =  400.000; ENMIN  =  300.000 eV                                      
   ICORE  =        2    local potential                                         
   LCOR   =        T    correct aug charges                                     
   LPAW   =        T    paw PP                                                  
   EAUG   =  613.614                                                            
   RMAX   =    1.555    core radius for proj-oper                               
   RAUG   =    1.300    factor for augmentation sphere                          
   RDEP   =    1.539    radius for radial grids                                 
   RDEPT  =    1.299    core radius for aug-charge                              
                                                                                
   Atomic configuration                                                         
    4 entries                                                                   
     n  l   j            E        occ.                                          
     1  0  0.50      -663.3661   2.0000                                         
     2  0  0.50       -29.8995   2.0000                                         
     2  1  0.50       -11.1114   5.0000                                         
     3  2  1.50       -10.8847   0.0000                                         
   Description                                                                  
     l       E           TYP  RCUT    TYP  RCUT                                 
     0    -29.8995018     23  1.200                                             
     0     -9.5240782     23  1.200                                             
     1    -11.1113914     23  1.520                                             
     1      1.3605826     23  1.520                                             
     2    -10.8846608      7  1.500                                             
  local pseudopotential read in
  partial core-charges read in
  partial kinetic energy density read in
  atomic valenz-charges read in
  non local Contribution for L=           0  read in
    real space projection operators read in
  non local Contribution for L=           0  read in
    real space projection operators read in
  non local Contribution for L=           1  read in
    real space projection operators read in
  non local Contribution for L=           1  read in
    real space projection operators read in
    PAW grid and wavefunctions read in
 
   number of l-projection  operators is LMAX  =           4
   number of lm-projection operators is LMMAX =           8
 
 POTCAR:    PAW_PBE Li_sv 10Sep2004               
   VRHFIN =Li: 1s2s2p                                                           
   LEXCH  = PE                                                                  
   EATOM  =   202.7858 eV,   14.9043 Ry                                         
                                                                                
   TITEL  = PAW_PBE Li_sv 10Sep2004                                             
   LULTRA =        F    use ultrasoft PP ?                                      
   IUNSCR =        0    unscreen: 0-lin 1-nonlin 2-no                           
   RPACOR =    0.000    partial core radius                                     
   POMASS =    7.010; ZVAL   =    3.000    mass and valenz                      
   RCORE  =    1.700    outmost cutoff radius                                   
   RWIGS  =    2.050; RWIGS  =    1.085    wigner-seitz radius (au A)           
   ENMAX  =  499.034; ENMIN  =  374.276 eV                                      
   ICORE  =        2    local potential                                         
   LCOR   =        T    correct aug charges                                     
   LPAW   =        T    paw PP                                                  
   EAUG   =  628.945                                                            
   RMAX   =    1.732    core radius for proj-oper                               
   RAUG   =    1.300    factor for augmentation sphere                          
   RDEP   =    1.728    radius for radial grids                                 
   RDEPT  =    1.329    core radius for aug-charge                              
                                                                                
   Atomic configuration                                                         
    4 entries                                                                   
     n  l   j            E        occ.                                          
     1  0  0.50       -51.8549   2.0000                                         
     2  0  0.50        -2.8742   1.0000                                         
     2  1  0.50        -1.3606   0.0000                                         
     3  2  1.50        -1.3606   0.0000                                         
   Description                                                                  
     l       E           TYP  RCUT    TYP  RCUT                                 
     0    -51.8548813     23  1.400                                             
     0     -2.8742052     23  1.700                                             
     1     -1.3605826     23  1.400                                             
     2     -1.3605826     23  1.400                                             
  local pseudopotential read in
  atomic valenz-charges read in
  non local Contribution for L=           0  read in
    real space projection operators read in
  non local Contribution for L=           0  read in
    real space projection operators read in
  non local Contribution for L=           1  read in
    real space projection operators read in
    PAW grid and wavefunctions read in
 
   number of l-projection  operators is LMAX  =           3
   number of lm-projection operators is LMMAX =           5
 
  PAW_PBE Cs_sv 08Apr2002               :
 energy of atom  1       EATOM= -555.6835
 kinetic energy error for atom=    0.0016 (will be added to EATOM!!)
  PAW_PBE F 08Apr2002                   :
 energy of atom  2       EATOM= -659.6475
 kinetic energy error for atom=    0.0323 (will be added to EATOM!!)
  PAW_PBE Li_sv 10Sep2004               :
 energy of atom  3       EATOM= -202.7858
 kinetic energy error for atom=    0.0130 (will be added to EATOM!!)
 
 
 POSCAR: Cs1 F3 Li2                              
  positions in direct lattice
  velocities in cartesian coordinates
 exchange correlation table for  LEXCH =        8
   RHO(1)=    0.500       N(1)  =     2000
   RHO(2)=  100.500       N(2)  =     4000
 


--------------------------------------------------------------------------------------------------------


 ion  position               nearest neighbor table
   1  0.000  0.000  0.000-
   2  0.750  0.250  0.500-   5 2.12   6 2.12   5 2.12   6 2.12
   3  0.500  0.500  0.000-   5 1.96   6 1.96
   4  0.250  0.750  0.500-   5 2.12   6 2.12   5 2.12   6 2.12
   5  0.309  0.309  0.000-   3 1.96   2 2.12   4 2.12   4 2.12   2 2.12
   6  0.691  0.691  0.000-   3 1.96   2 2.12   4 2.12   2 2.12   4 2.12
 
  LATTYP: Found a body centered tetragonal cell.
 ALAT       =     4.0582964041
 C/A-ratio  =     2.5264410174
  
  Lattice vectors:
  
 A1 = (  -2.0291482021,   2.0291482021,   5.1265232481)
 A2 = (   2.0291482021,  -2.0291482021,   5.1265232481)
 A3 = (   2.0291482021,   2.0291482021,  -5.1265232481)


Analysis of symmetry for initial positions (statically):
=====================================================================
 Subroutine PRICEL returns:
 Original cell was already a primitive cell.
 

 Routine SETGRP: Setting up the symmetry group for a 
 body centered tetragonal supercell.


 Subroutine GETGRP returns: Found 16 space group operations
 (whereof 16 operations were pure point group operations)
 out of a pool of 16 trial point group operations.


The static configuration has the point symmetry D_4h.


Analysis of symmetry for dynamics (positions and initial velocities):
=====================================================================
 Subroutine PRICEL returns:
 Original cell was already a primitive cell.
 

 Routine SETGRP: Setting up the symmetry group for a 
 body centered tetragonal supercell.


 Subroutine GETGRP returns: Found 16 space group operations
 (whereof 16 operations were pure point group operations)
 out of a pool of 16 trial point group operations.


The dynamic configuration has the point symmetry D_4h.
 
 
 KPOINTS: K-Mesh                                  

Automatic generation of k-mesh.
Space group operators:
 irot       det(A)        alpha          n_x          n_y          n_z        tau_x        tau_y        tau_z
    1     1.000000     0.000000     1.000000     0.000000     0.000000     0.000000     0.000000     0.000000
    2    -1.000000     0.000000     1.000000     0.000000     0.000000     0.000000     0.000000     0.000000
    3     1.000000    90.000000     0.000000     0.000000    -1.000000     0.000000     0.000000     0.000000
    4    -1.000000    90.000000     0.000000     0.000000    -1.000000     0.000000     0.000000     0.000000
    5     1.000000   180.000000     0.000000     0.000000     1.000000     0.000000     0.000000     0.000000
    6    -1.000000   180.000000     0.000000     0.000000     1.000000     0.000000     0.000000     0.000000
    7     1.000000    90.000000     0.000000     0.000000     1.000000     0.000000     0.000000     0.000000
    8    -1.000000    90.000000     0.000000     0.000000     1.000000     0.000000     0.000000     0.000000
    9     1.000000   180.000000     0.000000     1.000000     0.000000     0.000000     0.000000     0.000000
   10    -1.000000   180.000000     0.000000     1.000000     0.000000     0.000000     0.000000     0.000000
   11     1.000000   180.000000     0.707107     0.707107     0.000000     0.000000     0.000000     0.000000
   12    -1.000000   180.000000     0.707107     0.707107     0.000000     0.000000     0.000000     0.000000
   13     1.000000   180.000000     1.000000     0.000000     0.000000     0.000000     0.000000     0.000000
   14    -1.000000   180.000000     1.000000     0.000000     0.000000     0.000000     0.000000     0.000000
   15     1.000000   180.000000     0.707107    -0.707107     0.000000     0.000000     0.000000     0.000000
   16    -1.000000   180.000000     0.707107    -0.707107     0.000000     0.000000     0.000000     0.000000
 
 Subroutine IBZKPT returns following result:
 ===========================================
 
 Found    244 irreducible k-points:
 
 Following reciprocal coordinates:
            Coordinates               Weight
  0.000000  0.000000  0.000000      1.000000
  0.071429  0.000000  0.000000      8.000000
  0.142857  0.000000  0.000000      8.000000
  0.214286  0.000000  0.000000      8.000000
  0.285714  0.000000  0.000000      8.000000
  0.357143  0.000000  0.000000      8.000000
  0.428571  0.000000  0.000000      8.000000
  0.500000  0.000000  0.000000      4.000000
  0.071429  0.071429  0.000000      8.000000
  0.142857  0.071429  0.000000     16.000000
  0.214286  0.071429  0.000000     16.000000
  0.285714  0.071429  0.000000     16.000000
  0.357143  0.071429  0.000000     16.000000
  0.428571  0.071429  0.000000     16.000000
  0.500000  0.071429  0.000000     16.000000
 -0.428571  0.071429  0.000000     16.000000
 -0.357143  0.071429  0.000000     16.000000
 -0.285714  0.071429  0.000000     16.000000
 -0.214286  0.071429  0.000000     16.000000
 -0.142857  0.071429  0.000000     16.000000
 -0.071429  0.071429  0.000000      4.000000
  0.142857  0.142857  0.000000      8.000000
  0.214286  0.142857  0.000000     16.000000
  0.285714  0.142857  0.000000     16.000000
  0.357143  0.142857  0.000000     16.000000
  0.428571  0.142857  0.000000     16.000000
  0.500000  0.142857  0.000000     16.000000
 -0.428571  0.142857  0.000000     16.000000
 -0.357143  0.142857  0.000000     16.000000
 -0.285714  0.142857  0.000000     16.000000
 -0.214286  0.142857  0.000000     16.000000
 -0.142857  0.142857  0.000000      4.000000
  0.214286  0.214286  0.000000      8.000000
  0.285714  0.214286  0.000000     16.000000
  0.357143  0.214286  0.000000     16.000000
  0.428571  0.214286  0.000000     16.000000
  0.500000  0.214286  0.000000     16.000000
 -0.428571  0.214286  0.000000     16.000000
 -0.357143  0.214286  0.000000     16.000000
 -0.285714  0.214286  0.000000     16.000000
 -0.214286  0.214286  0.000000      4.000000
  0.285714  0.285714  0.000000      8.000000
  0.357143  0.285714  0.000000     16.000000
  0.428571  0.285714  0.000000     16.000000
  0.500000  0.285714  0.000000     16.000000
 -0.428571  0.285714  0.000000     16.000000
 -0.357143  0.285714  0.000000     16.000000
 -0.285714  0.285714  0.000000      4.000000
  0.357143  0.357143  0.000000      8.000000
  0.428571  0.357143  0.000000     16.000000
  0.500000  0.357143  0.000000     16.000000
 -0.428571  0.357143  0.000000     16.000000
 -0.357143  0.357143  0.000000      4.000000
  0.428571  0.428571  0.000000      8.000000
  0.500000  0.428571  0.000000     16.000000
 -0.428571  0.428571  0.000000      4.000000
  0.500000  0.500000  0.000000      2.000000
  0.071429  0.071429  0.071429      8.000000
  0.142857  0.071429  0.071429     16.000000
  0.214286  0.071429  0.071429     16.000000
  0.285714  0.071429  0.071429     16.000000
  0.357143  0.071429  0.071429     16.000000
  0.428571  0.071429  0.071429      8.000000
 -0.071429  0.071429  0.071429      4.000000
  0.142857  0.142857  0.071429      8.000000
  0.214286  0.142857  0.071429     16.000000
  0.285714  0.142857  0.071429     16.000000
  0.357143  0.142857  0.071429     16.000000
  0.428571  0.142857  0.071429     16.000000
  0.500000  0.142857  0.071429     16.000000
 -0.428571  0.142857  0.071429     16.000000
 -0.357143  0.142857  0.071429     16.000000
 -0.285714  0.142857  0.071429      8.000000
 -0.142857  0.142857  0.071429      8.000000
 -0.071429  0.142857  0.071429      8.000000
  0.214286  0.214286  0.071429      8.000000
  0.285714  0.214286  0.071429     16.000000
  0.357143  0.214286  0.071429     16.000000
  0.428571  0.214286  0.071429     16.000000
  0.500000  0.214286  0.071429     16.000000
 -0.428571  0.214286  0.071429     16.000000
 -0.357143  0.214286  0.071429      8.000000
 -0.214286  0.214286  0.071429      8.000000
 -0.142857  0.214286  0.071429     16.000000
 -0.071429  0.214286  0.071429      8.000000
  0.285714  0.285714  0.071429      8.000000
  0.357143  0.285714  0.071429     16.000000
  0.428571  0.285714  0.071429     16.000000
  0.500000  0.285714  0.071429     16.000000
 -0.428571  0.285714  0.071429      8.000000
 -0.285714  0.285714  0.071429      8.000000
 -0.214286  0.285714  0.071429     16.000000
 -0.142857  0.285714  0.071429     16.000000
 -0.071429  0.285714  0.071429      8.000000
  0.357143  0.357143  0.071429      8.000000
  0.428571  0.357143  0.071429     16.000000
  0.500000  0.357143  0.071429      8.000000
 -0.357143  0.357143  0.071429      8.000000
 -0.285714  0.357143  0.071429     16.000000
 -0.214286  0.357143  0.071429     16.000000
 -0.142857  0.357143  0.071429     16.000000
 -0.071429  0.357143  0.071429      8.000000
  0.428571  0.428571  0.071429      4.000000
 -0.428571  0.428571  0.071429      8.000000
 -0.357143  0.428571  0.071429     16.000000
 -0.285714  0.428571  0.071429     16.000000
 -0.214286  0.428571  0.071429     16.000000
 -0.142857  0.428571  0.071429     16.000000
 -0.071429  0.428571  0.071429      8.000000
  0.500000  0.500000  0.071429      4.000000
 -0.428571  0.500000  0.071429     16.000000
 -0.357143  0.500000  0.071429     16.000000
 -0.285714  0.500000  0.071429     16.000000
 -0.214286  0.500000  0.071429     16.000000
 -0.142857  0.500000  0.071429     16.000000
 -0.071429  0.500000  0.071429      8.000000
 -0.428571 -0.428571  0.071429      8.000000
 -0.357143 -0.428571  0.071429     16.000000
 -0.285714 -0.428571  0.071429     16.000000
 -0.214286 -0.428571  0.071429     16.000000
 -0.142857 -0.428571  0.071429     16.000000
 -0.071429 -0.428571  0.071429      8.000000
 -0.357143 -0.357143  0.071429      8.000000
 -0.285714 -0.357143  0.071429     16.000000
 -0.214286 -0.357143  0.071429     16.000000
 -0.142857 -0.357143  0.071429     16.000000
 -0.071429 -0.357143  0.071429      8.000000
 -0.285714 -0.285714  0.071429      8.000000
 -0.214286 -0.285714  0.071429     16.000000
 -0.142857 -0.285714  0.071429     16.000000
 -0.071429 -0.285714  0.071429      8.000000
 -0.214286 -0.214286  0.071429      8.000000
 -0.142857 -0.214286  0.071429     16.000000
 -0.071429 -0.214286  0.071429      8.000000
 -0.142857 -0.142857  0.071429      8.000000
 -0.071429 -0.142857  0.071429      8.000000
 -0.071429 -0.071429  0.071429      2.000000
  0.142857  0.142857  0.142857      8.000000
  0.214286  0.142857  0.142857     16.000000
  0.285714  0.142857  0.142857     16.000000
  0.357143  0.142857  0.142857      8.000000
 -0.142857  0.142857  0.142857      4.000000
  0.214286  0.214286  0.142857      8.000000
  0.285714  0.214286  0.142857     16.000000
  0.357143  0.214286  0.142857     16.000000
  0.428571  0.214286  0.142857     16.000000
  0.500000  0.214286  0.142857      8.000000
 -0.214286  0.214286  0.142857      8.000000
 -0.142857  0.214286  0.142857      8.000000
  0.285714  0.285714  0.142857      8.000000
  0.357143  0.285714  0.142857     16.000000
  0.428571  0.285714  0.142857      8.000000
 -0.285714  0.285714  0.142857      8.000000
 -0.214286  0.285714  0.142857     16.000000
 -0.142857  0.285714  0.142857      8.000000
  0.357143  0.357143  0.142857      4.000000
 -0.357143  0.357143  0.142857      8.000000
 -0.285714  0.357143  0.142857     16.000000
 -0.214286  0.357143  0.142857     16.000000
 -0.142857  0.357143  0.142857      8.000000
 -0.428571  0.428571  0.142857      8.000000
 -0.357143  0.428571  0.142857     16.000000
 -0.285714  0.428571  0.142857     16.000000
 -0.214286  0.428571  0.142857     16.000000
 -0.142857  0.428571  0.142857      8.000000
  0.500000  0.500000  0.142857      4.000000
 -0.428571  0.500000  0.142857     16.000000
 -0.357143  0.500000  0.142857     16.000000
 -0.285714  0.500000  0.142857     16.000000
 -0.214286  0.500000  0.142857     16.000000
 -0.142857  0.500000  0.142857      8.000000
 -0.428571 -0.428571  0.142857      8.000000
 -0.357143 -0.428571  0.142857     16.000000
 -0.285714 -0.428571  0.142857     16.000000
 -0.214286 -0.428571  0.142857     16.000000
 -0.142857 -0.428571  0.142857      8.000000
 -0.357143 -0.357143  0.142857      8.000000
 -0.285714 -0.357143  0.142857     16.000000
 -0.214286 -0.357143  0.142857     16.000000
 -0.142857 -0.357143  0.142857      8.000000
 -0.285714 -0.285714  0.142857      8.000000
 -0.214286 -0.285714  0.142857     16.000000
 -0.142857 -0.285714  0.142857      8.000000
 -0.214286 -0.214286  0.142857      8.000000
 -0.142857 -0.214286  0.142857      8.000000
 -0.142857 -0.142857  0.142857      2.000000
  0.214286  0.214286  0.214286      8.000000
  0.285714  0.214286  0.214286      8.000000
 -0.214286  0.214286  0.214286      4.000000
  0.285714  0.285714  0.214286      4.000000
 -0.285714  0.285714  0.214286      8.000000
 -0.214286  0.285714  0.214286      8.000000
 -0.357143  0.357143  0.214286      8.000000
 -0.285714  0.357143  0.214286     16.000000
 -0.214286  0.357143  0.214286      8.000000
 -0.428571  0.428571  0.214286      8.000000
 -0.357143  0.428571  0.214286     16.000000
 -0.285714  0.428571  0.214286     16.000000
 -0.214286  0.428571  0.214286      8.000000
  0.500000  0.500000  0.214286      4.000000
 -0.428571  0.500000  0.214286     16.000000
 -0.357143  0.500000  0.214286     16.000000
 -0.285714  0.500000  0.214286     16.000000
 -0.214286  0.500000  0.214286      8.000000
 -0.428571 -0.428571  0.214286      8.000000
 -0.357143 -0.428571  0.214286     16.000000
 -0.285714 -0.428571  0.214286     16.000000
 -0.214286 -0.428571  0.214286      8.000000
 -0.357143 -0.357143  0.214286      8.000000
 -0.285714 -0.357143  0.214286     16.000000
 -0.214286 -0.357143  0.214286      8.000000
 -0.285714 -0.285714  0.214286      8.000000
 -0.214286 -0.285714  0.214286      8.000000
 -0.214286 -0.214286  0.214286      2.000000
 -0.285714  0.285714  0.285714      4.000000
 -0.357143  0.357143  0.285714      8.000000
 -0.285714  0.357143  0.285714      8.000000
 -0.428571  0.428571  0.285714      8.000000
 -0.357143  0.428571  0.285714     16.000000
 -0.285714  0.428571  0.285714      8.000000
  0.500000  0.500000  0.285714      4.000000
 -0.428571  0.500000  0.285714     16.000000
 -0.357143  0.500000  0.285714     16.000000
 -0.285714  0.500000  0.285714      8.000000
 -0.428571 -0.428571  0.285714      8.000000
 -0.357143 -0.428571  0.285714     16.000000
 -0.285714 -0.428571  0.285714      8.000000
 -0.357143 -0.357143  0.285714      8.000000
 -0.285714 -0.357143  0.285714      8.000000
 -0.285714 -0.285714  0.285714      2.000000
 -0.357143  0.357143  0.357143      4.000000
 -0.428571  0.428571  0.357143      8.000000
 -0.357143  0.428571  0.357143      8.000000
  0.500000  0.500000  0.357143      4.000000
 -0.428571  0.500000  0.357143     16.000000
 -0.357143  0.500000  0.357143      8.000000
 -0.428571 -0.428571  0.357143      8.000000
 -0.357143 -0.428571  0.357143      8.000000
 -0.357143 -0.357143  0.357143      2.000000
 -0.428571  0.428571  0.428571      4.000000
  0.500000  0.500000  0.428571      4.000000
 -0.428571  0.500000  0.428571      8.000000
 -0.428571 -0.428571  0.428571      2.000000
  0.500000  0.500000  0.500000      1.000000
 
 Following cartesian coordinates:
            Coordinates               Weight
  0.000000  0.000000  0.000000      1.000000
  0.000000  0.017601  0.006967      8.000000
  0.000000  0.035201  0.013933      8.000000
  0.000000  0.052802  0.020900      8.000000
  0.000000  0.070403  0.027866      8.000000
  0.000000  0.088003  0.034833      8.000000
  0.000000  0.105604  0.041799      8.000000
  0.000000  0.123204  0.048766      4.000000
  0.017601  0.017601  0.013933      8.000000
  0.017601  0.035201  0.020900     16.000000
  0.017601  0.052802  0.027866     16.000000
  0.017601  0.070403  0.034833     16.000000
  0.017601  0.088003  0.041799     16.000000
  0.017601  0.105604  0.048766     16.000000
  0.017601  0.123204  0.055733     16.000000
  0.017601 -0.105604 -0.034833     16.000000
  0.017601 -0.088003 -0.027866     16.000000
  0.017601 -0.070403 -0.020900     16.000000
  0.017601 -0.052802 -0.013933     16.000000
  0.017601 -0.035201 -0.006967     16.000000
  0.017601 -0.017601  0.000000      4.000000
  0.035201  0.035201  0.027866      8.000000
  0.035201  0.052802  0.034833     16.000000
  0.035201  0.070403  0.041799     16.000000
  0.035201  0.088003  0.048766     16.000000
  0.035201  0.105604  0.055733     16.000000
  0.035201  0.123204  0.062699     16.000000
  0.035201 -0.105604 -0.027866     16.000000
  0.035201 -0.088003 -0.020900     16.000000
  0.035201 -0.070403 -0.013933     16.000000
  0.035201 -0.052802 -0.006967     16.000000
  0.035201 -0.035201  0.000000      4.000000
  0.052802  0.052802  0.041799      8.000000
  0.052802  0.070403  0.048766     16.000000
  0.052802  0.088003  0.055733     16.000000
  0.052802  0.105604  0.062699     16.000000
  0.052802  0.123204  0.069666     16.000000
  0.052802 -0.105604 -0.020900     16.000000
  0.052802 -0.088003 -0.013933     16.000000
  0.052802 -0.070403 -0.006967     16.000000
  0.052802 -0.052802  0.000000      4.000000
  0.070403  0.070403  0.055733      8.000000
  0.070403  0.088003  0.062699     16.000000
  0.070403  0.105604  0.069666     16.000000
  0.070403  0.123204  0.076632     16.000000
  0.070403 -0.105604 -0.013933     16.000000
  0.070403 -0.088003 -0.006967     16.000000
  0.070403 -0.070403  0.000000      4.000000
  0.088003  0.088003  0.069666      8.000000
  0.088003  0.105604  0.076632     16.000000
  0.088003  0.123204  0.083599     16.000000
  0.088003 -0.105604 -0.006967     16.000000
  0.088003 -0.088003  0.000000      4.000000
  0.105604  0.105604  0.083599      8.000000
  0.105604  0.123204  0.090565     16.000000
  0.105604 -0.105604  0.000000      4.000000
  0.123204  0.123204  0.097532      2.000000
  0.035201  0.035201  0.013933      8.000000
  0.035201  0.052802  0.020900     16.000000
  0.035201  0.070403  0.027866     16.000000
  0.035201  0.088003  0.034833     16.000000
  0.035201  0.105604  0.041799     16.000000
  0.035201  0.123204  0.048766      8.000000
  0.035201  0.000000  0.000000      4.000000
  0.052802  0.052802  0.027866      8.000000
  0.052802  0.070403  0.034833     16.000000
  0.052802  0.088003  0.041799     16.000000
  0.052802  0.105604  0.048766     16.000000
  0.052802  0.123204  0.055733     16.000000
  0.052802  0.140805  0.062699     16.000000
  0.052802 -0.088003 -0.027866     16.000000
  0.052802 -0.070403 -0.020900     16.000000
  0.052802 -0.052802 -0.013933      8.000000
  0.052802 -0.017601  0.000000      8.000000
  0.052802  0.000000  0.006967      8.000000
  0.070403  0.070403  0.041799      8.000000
  0.070403  0.088003  0.048766     16.000000
  0.070403  0.105604  0.055733     16.000000
  0.070403  0.123204  0.062699     16.000000
  0.070403  0.140805  0.069666     16.000000
  0.070403 -0.088003 -0.020900     16.000000
  0.070403 -0.070403 -0.013933      8.000000
  0.070403 -0.035201  0.000000      8.000000
  0.070403 -0.017601  0.006967     16.000000
  0.070403  0.000000  0.013933      8.000000
  0.088003  0.088003  0.055733      8.000000
  0.088003  0.105604  0.062699     16.000000
  0.088003  0.123204  0.069666     16.000000
  0.088003  0.140805  0.076632     16.000000
  0.088003 -0.088003 -0.013933      8.000000
  0.088003 -0.052802  0.000000      8.000000
  0.088003 -0.035201  0.006967     16.000000
  0.088003 -0.017601  0.013933     16.000000
  0.088003  0.000000  0.020900      8.000000
  0.105604  0.105604  0.069666      8.000000
  0.105604  0.123204  0.076632     16.000000
  0.105604  0.140805  0.083599      8.000000
  0.105604 -0.070403  0.000000      8.000000
  0.105604 -0.052802  0.006967     16.000000
  0.105604 -0.035201  0.013933     16.000000
  0.105604 -0.017601  0.020900     16.000000
  0.105604  0.000000  0.027866      8.000000
  0.123204  0.123204  0.083599      4.000000
  0.123204 -0.088003  0.000000      8.000000
  0.123204 -0.070403  0.006967     16.000000
  0.123204 -0.052802  0.013933     16.000000
  0.123204 -0.035201  0.020900     16.000000
  0.123204 -0.017601  0.027866     16.000000
  0.123204  0.000000  0.034833      8.000000
  0.140805  0.140805  0.097532      4.000000
  0.140805 -0.088003  0.006967     16.000000
  0.140805 -0.070403  0.013933     16.000000
  0.140805 -0.052802  0.020900     16.000000
  0.140805 -0.035201  0.027866     16.000000
  0.140805 -0.017601  0.034833     16.000000
  0.140805  0.000000  0.041799      8.000000
 -0.088003 -0.088003 -0.083599      8.000000
 -0.088003 -0.070403 -0.076632     16.000000
 -0.088003 -0.052802 -0.069666     16.000000
 -0.088003 -0.035201 -0.062699     16.000000
 -0.088003 -0.017601 -0.055733     16.000000
 -0.088003  0.000000 -0.048766      8.000000
 -0.070403 -0.070403 -0.069666      8.000000
 -0.070403 -0.052802 -0.062699     16.000000
 -0.070403 -0.035201 -0.055733     16.000000
 -0.070403 -0.017601 -0.048766     16.000000
 -0.070403  0.000000 -0.041799      8.000000
 -0.052802 -0.052802 -0.055733      8.000000
 -0.052802 -0.035201 -0.048766     16.000000
 -0.052802 -0.017601 -0.041799     16.000000
 -0.052802  0.000000 -0.034833      8.000000
 -0.035201 -0.035201 -0.041799      8.000000
 -0.035201 -0.017601 -0.034833     16.000000
 -0.035201  0.000000 -0.027866      8.000000
 -0.017601 -0.017601 -0.027866      8.000000
 -0.017601  0.000000 -0.020900      8.000000
  0.000000  0.000000 -0.013933      2.000000
  0.070403  0.070403  0.027866      8.000000
  0.070403  0.088003  0.034833     16.000000
  0.070403  0.105604  0.041799     16.000000
  0.070403  0.123204  0.048766      8.000000
  0.070403  0.000000  0.000000      4.000000
  0.088003  0.088003  0.041799      8.000000
  0.088003  0.105604  0.048766     16.000000
  0.088003  0.123204  0.055733     16.000000
  0.088003  0.140805  0.062699     16.000000
  0.088003  0.158406  0.069666      8.000000
  0.088003 -0.017601  0.000000      8.000000
  0.088003  0.000000  0.006967      8.000000
  0.105604  0.105604  0.055733      8.000000
  0.105604  0.123204  0.062699     16.000000
  0.105604  0.140805  0.069666      8.000000
  0.105604 -0.035201  0.000000      8.000000
  0.105604 -0.017601  0.006967     16.000000
  0.105604  0.000000  0.013933      8.000000
  0.123204  0.123204  0.069666      4.000000
  0.123204 -0.052802  0.000000      8.000000
  0.123204 -0.035201  0.006967     16.000000
  0.123204 -0.017601  0.013933     16.000000
  0.123204  0.000000  0.020900      8.000000
  0.140805 -0.070403  0.000000      8.000000
  0.140805 -0.052802  0.006967     16.000000
  0.140805 -0.035201  0.013933     16.000000
  0.140805 -0.017601  0.020900     16.000000
  0.140805  0.000000  0.027866      8.000000
  0.158406  0.158406  0.097532      4.000000
  0.158406 -0.070403  0.006967     16.000000
  0.158406 -0.052802  0.013933     16.000000
  0.158406 -0.035201  0.020900     16.000000
  0.158406 -0.017601  0.027866     16.000000
  0.158406  0.000000  0.034833      8.000000
 -0.070403 -0.070403 -0.083599      8.000000
 -0.070403 -0.052802 -0.076632     16.000000
 -0.070403 -0.035201 -0.069666     16.000000
 -0.070403 -0.017601 -0.062699     16.000000
 -0.070403  0.000000 -0.055733      8.000000
 -0.052802 -0.052802 -0.069666      8.000000
 -0.052802 -0.035201 -0.062699     16.000000
 -0.052802 -0.017601 -0.055733     16.000000
 -0.052802  0.000000 -0.048766      8.000000
 -0.035201 -0.035201 -0.055733      8.000000
 -0.035201 -0.017601 -0.048766     16.000000
 -0.035201  0.000000 -0.041799      8.000000
 -0.017601 -0.017601 -0.041799      8.000000
 -0.017601  0.000000 -0.034833      8.000000
  0.000000  0.000000 -0.027866      2.000000
  0.105604  0.105604  0.041799      8.000000
  0.105604  0.123204  0.048766      8.000000
  0.105604  0.000000  0.000000      4.000000
  0.123204  0.123204  0.055733      4.000000
  0.123204 -0.017601  0.000000      8.000000
  0.123204  0.000000  0.006967      8.000000
  0.140805 -0.035201  0.000000      8.000000
  0.140805 -0.017601  0.006967     16.000000
  0.140805  0.000000  0.013933      8.000000
  0.158406 -0.052802  0.000000      8.000000
  0.158406 -0.035201  0.006967     16.000000
  0.158406 -0.017601  0.013933     16.000000
  0.158406  0.000000  0.020900      8.000000
  0.176006  0.176006  0.097532      4.000000
  0.176006 -0.052802  0.006967     16.000000
  0.176006 -0.035201  0.013933     16.000000
  0.176006 -0.017601  0.020900     16.000000
  0.176006  0.000000  0.027866      8.000000
 -0.052802 -0.052802 -0.083599      8.000000
 -0.052802 -0.035201 -0.076632     16.000000
 -0.052802 -0.017601 -0.069666     16.000000
 -0.052802  0.000000 -0.062699      8.000000
 -0.035201 -0.035201 -0.069666      8.000000
 -0.035201 -0.017601 -0.062699     16.000000
 -0.035201  0.000000 -0.055733      8.000000
 -0.017601 -0.017601 -0.055733      8.000000
 -0.017601  0.000000 -0.048766      8.000000
  0.000000  0.000000 -0.041799      2.000000
  0.140805  0.000000  0.000000      4.000000
  0.158406 -0.017601  0.000000      8.000000
  0.158406  0.000000  0.006967      8.000000
  0.176006 -0.035201  0.000000      8.000000
  0.176006 -0.017601  0.006967     16.000000
  0.176006  0.000000  0.013933      8.000000
  0.193607  0.193607  0.097532      4.000000
  0.193607 -0.035201  0.006967     16.000000
  0.193607 -0.017601  0.013933     16.000000
  0.193607  0.000000  0.020900      8.000000
 -0.035201 -0.035201 -0.083599      8.000000
 -0.035201 -0.017601 -0.076632     16.000000
 -0.035201  0.000000 -0.069666      8.000000
 -0.017601 -0.017601 -0.069666      8.000000
 -0.017601  0.000000 -0.062699      8.000000
  0.000000  0.000000 -0.055733      2.000000
  0.176006  0.000000  0.000000      4.000000
  0.193607 -0.017601  0.000000      8.000000
  0.193607  0.000000  0.006967      8.000000
  0.211208  0.211208  0.097532      4.000000
  0.211208 -0.017601  0.006967     16.000000
  0.211208  0.000000  0.013933      8.000000
 -0.017601 -0.017601 -0.083599      8.000000
 -0.017601  0.000000 -0.076632      8.000000
  0.000000  0.000000 -0.069666      2.000000
  0.211208  0.000000  0.000000      4.000000
  0.228808  0.228808  0.097532      4.000000
  0.228808  0.000000  0.006967      8.000000
  0.000000  0.000000 -0.083599      2.000000
  0.246409  0.246409  0.097532      1.000000
 


--------------------------------------------------------------------------------------------------------




 Dimension of arrays:
   k-points           NKPTS =    244   k-points in BZ     NKDIM =    244   number of bands    NBANDS=     24
   number of dos      NEDOS =    301   number of ions     NIONS =      6
   non local maximal  LDIM  =      5   non local SUM 2l+1 LMDIM =     13
   total plane-waves  NPLWV = 110592
   max r-space proj   IRMAX =      1   max aug-charges    IRDMAX= 524027
   dimension x,y,z NGX =    48 NGY =   48 NGZ =   48
   dimension x,y,z NGXF=    96 NGYF=   96 NGZF=   96
   support grid    NGXF=   192 NGYF=  192 NGZF=  192
   ions per type =               1   3   2
 NGX,Y,Z   is equivalent  to a cutoff of  13.58, 13.58, 13.58 a.u.
 NGXF,Y,Z  is equivalent  to a cutoff of  27.17, 27.17, 27.17 a.u.


 I would recommend the setting:
   dimension x,y,z NGX =    44 NGY =   44 NGZ =   44
 SYSTEM =  matgen-scf                              
 POSCAR =  Cs1 F3 Li2                              

 Startparameter for this run:
   NWRITE =      2    write-flag & timer
   PREC   = accura    normal or accurate (medium, high low for compatibility)
   ISTART =      0    job   : 0-new  1-cont  2-samecut
   ICHARG =      2    charge: 1-file 2-atom 10-const
   ISPIN  =      1    spin polarized calculation?
   LNONCOLLINEAR =      F non collinear calculations
   LSORBIT =      F    spin-orbit coupling
   INIWAV =      1    electr: 0-lowe 1-rand  2-diag
   LASPH  =      F    aspherical Exc in radial PAW
   METAGGA=      F    non-selfconsistent MetaGGA calc.

 Electronic Relaxation 1
   ENCUT  =  520.0 eV  38.22 Ry    6.18 a.u.  10.92 10.92 10.92*2*pi/ulx,y,z
   ENINI  =  520.0     initial cutoff
   ENAUG  =  628.9 eV  augmentation charge cutoff
   NELM   =    140;   NELMIN=  6; NELMDL= -5     # of ELM steps 
   EDIFF  = 0.1E-03   stopping-criterion for ELM
   LREAL  =      F    real-space projection
   NLSPLINE    = F    spline interpolate recip. space projectors
   LCOMPAT=      F    compatible to vasp.4.4
   GGA_COMPAT  = T    GGA compatible to vasp.4.4-vasp.4.6
   LMAXPAW     = -100 max onsite density
   LMAXMIX     =    2 max onsite mixed and CHGCAR
   VOSKOWN=      0    Vosko Wilk Nusair interpolation
   ROPT   =    0.00000   0.00000   0.00000
 Ionic relaxation
   EDIFFG = -.1E-01   stopping-criterion for IOM
   NSW    =      0    number of steps for IOM
   NBLOCK =      1;   KBLOCK =      1    inner block; outer block 
   IBRION =     -1    ionic relax: 0-MD 1-quasi-New 2-CG
   NFREE  =      0    steps in history (QN), initial steepest desc. (CG)
   ISIF   =      2    stress and relaxation
   IWAVPR =     10    prediction:  0-non 1-charg 2-wave 3-comb
   ISYM   =      2    0-nonsym 1-usesym 2-fastsym
   LCORR  =      T    Harris-Foulkes like correction to forces

   POTIM  = 0.0500    time-step for ionic-motion
   TEIN   =    0.0    initial temperature
   TEBEG  =    0.0;   TEEND  =   0.0 temperature during run
   SMASS  =  -3.00    Nose mass-parameter (am)
   estimated Nose-frequenzy (Omega)   =  0.10E-29 period in steps =****** mass=  -0.789E-27a.u.
   SCALEE = 1.0000    scale energy and forces
   NPACO  =    256;   APACO  = 16.0  distance and # of slots for P.C.
   PSTRESS=    0.0 pullay stress

  Mass of Ions in am
   POMASS = 132.90 19.00  7.01
  Ionic Valenz
   ZVAL   =   9.00  7.00  3.00
  Atomic Wigner-Seitz radii
   RWIGS  =  -1.00 -1.00 -1.00
  virtual crystal weights 
   VCA    =   1.00  1.00  1.00
   NELECT =      36.0000    total number of electrons
   NUPDOWN=      -1.0000    fix difference up-down

 DOS related values:
   EMIN   =  10.00;   EMAX   =-10.00  energy-range for DOS
   EFERMI =   0.00
   ISMEAR =     0;   SIGMA  =   0.05  broadening in eV -4-tet -1-fermi 0-gaus

 Electronic relaxation 2 (details)
   IALGO  =     38    algorithm
   LDIAG  =      T    sub-space diagonalisation (order eigenvalues)
   LSUBROT=      F    optimize rotation matrix (better conditioning)
   TURBO    =      0    0=normal 1=particle mesh
   IRESTART =      0    0=no restart 2=restart with 2 vectors
   NREBOOT  =      0    no. of reboots
   NMIN     =      0    reboot dimension
   EREF     =   0.00    reference energy to select bands
   IMIX   =      4    mixing-type and parameters
     AMIX     =   0.10;   BMIX     =  1.20
     AMIX_MAG =   0.40;   BMIX_MAG =  1.20
     AMIN     =   0.10
     WC   =   100.;   INIMIX=   1;  MIXPRE=   1;  MAXMIX= -45

 Intra band minimization:
   WEIMIN = 0.0000     energy-eigenvalue tresh-hold
   EBREAK =  0.10E-05  absolut break condition
   DEPER  =   0.30     relativ break condition  

   TIME   =   0.40     timestep for ELM

  volume/ion in A,a.u.               =      14.07        94.96
  Fermi-wavevector in a.u.,A,eV,Ry     =   1.232174  2.328472 20.657096  1.518254
  Thomas-Fermi vector in A             =   2.366955
 
 Write flags
   LWAVE  =      F    write WAVECAR
   LCHARG =      T    write CHGCAR
   LVTOT  =      F    write LOCPOT, total local potential
   LVHAR  =      F    write LOCPOT, Hartree potential only
   LELF   =      F    write electronic localiz. function (ELF)
   LORBIT =     11    0 simple, 1 ext, 2 COOP (PROOUT)


 Dipole corrections
   LMONO  =      F    monopole corrections only (constant potential shift)
   LDIPOL =      F    correct potential (dipole corrections)
   IDIPOL =      0    1-x, 2-y, 3-z, 4-all directions 
   EPSILON=  1.0000000 bulk dielectric constant

 Exchange correlation treatment:
   GGA     =    --    GGA type
   LEXCH   =     8    internal setting for exchange type
   VOSKOWN=      0    Vosko Wilk Nusair interpolation
   LHFCALC =     F    Hartree Fock is set to
   LHFONE  =     F    Hartree Fock one center treatment
   AEXX    =    0.0000 exact exchange contribution

 Linear response parameters
   LEPSILON=     F    determine dielectric tensor
   LRPA    =     F    only Hartree local field effects (RPA)
   LNABLA  =     F    use nabla operator in PAW spheres
   LVEL    =     F    velocity operator in full k-point grid
   LINTERFAST=   F  fast interpolation
   KINTER  =     0    interpolate to denser k-point grid
   CSHIFT  =0.1000    complex shift for real part using Kramers Kronig
   OMEGAMAX=  -1.0    maximum frequency
   DEG_THRESHOLD= 0.2000000E-02 threshold for treating states as degnerate
   RTIME   =    0.100 relaxation time in fs

 Orbital magnetization related:
   ORBITALMAG=     F  switch on orbital magnetization
   LCHIMAG   =     F  perturbation theory with respect to B field
   DQ        =  0.001000  dq finite difference perturbation B field



--------------------------------------------------------------------------------------------------------


 Static calculation
 charge density and potential will be updated during run
 non-spin polarized calculation
 Variant of blocked Davidson
 Davidson routine will perform the subspace rotation
 perform sub-space diagonalisation
    after iterative eigenvector-optimisation
 modified Broyden-mixing scheme, WC =      100.0
 initial mixing is a Kerker type mixing with AMIX =  0.1000 and BMIX =      1.2000
 Hartree-type preconditioning will be used
 using additional bands            6
 reciprocal scheme for non local part
 use partial core corrections
 calculate Harris-corrections to forces 
   (improved forces if not selfconsistent)
 use gradient corrections 
 use of overlap-Matrix (Vanderbilt PP)
 Gauss-broadening in eV      SIGMA  =   0.05


--------------------------------------------------------------------------------------------------------


  energy-cutoff  :      520.00
  volume of cell :       84.43
      direct lattice vectors                 reciprocal lattice vectors
    -2.029148202  2.029148202  5.126523248     0.000000000  0.246408813  0.097531987
     2.029148202 -2.029148202  5.126523248     0.246408813  0.000000000  0.097531987
     2.029148202  2.029148202 -5.126523248     0.246408813  0.246408813  0.000000000

  length of vectors
     5.875042593  5.875042593  5.875042593     0.265009041  0.265009041  0.348474685


 
 k-points in units of 2pi/SCALE and weight: K-Mesh                                  
   0.00000000  0.00000000  0.00000000       0.000
   0.00000000  0.01760063  0.00696657       0.003
   0.00000000  0.03520126  0.01393314       0.003
   0.00000000  0.05280189  0.02089971       0.003
   0.00000000  0.07040252  0.02786628       0.003
   0.00000000  0.08800315  0.03483285       0.003
   0.00000000  0.10560378  0.04179942       0.003
   0.00000000  0.12320441  0.04876599       0.001
   0.01760063  0.01760063  0.01393314       0.003
   0.01760063  0.03520126  0.02089971       0.006
   0.01760063  0.05280189  0.02786628       0.006
   0.01760063  0.07040252  0.03483285       0.006
   0.01760063  0.08800315  0.04179942       0.006
   0.01760063  0.10560378  0.04876599       0.006
   0.01760063  0.12320441  0.05573256       0.006
   0.01760063 -0.10560378 -0.03483285       0.006
   0.01760063 -0.08800315 -0.02786628       0.006
   0.01760063 -0.07040252 -0.02089971       0.006
   0.01760063 -0.05280189 -0.01393314       0.006
   0.01760063 -0.03520126 -0.00696657       0.006
   0.01760063 -0.01760063  0.00000000       0.001
   0.03520126  0.03520126  0.02786628       0.003
   0.03520126  0.05280189  0.03483285       0.006
   0.03520126  0.07040252  0.04179942       0.006
   0.03520126  0.08800315  0.04876599       0.006
   0.03520126  0.10560378  0.05573256       0.006
   0.03520126  0.12320441  0.06269913       0.006
   0.03520126 -0.10560378 -0.02786628       0.006
   0.03520126 -0.08800315 -0.02089971       0.006
   0.03520126 -0.07040252 -0.01393314       0.006
   0.03520126 -0.05280189 -0.00696657       0.006
   0.03520126 -0.03520126  0.00000000       0.001
   0.05280189  0.05280189  0.04179942       0.003
   0.05280189  0.07040252  0.04876599       0.006
   0.05280189  0.08800315  0.05573256       0.006
   0.05280189  0.10560378  0.06269913       0.006
   0.05280189  0.12320441  0.06966571       0.006
   0.05280189 -0.10560378 -0.02089971       0.006
   0.05280189 -0.08800315 -0.01393314       0.006
   0.05280189 -0.07040252 -0.00696657       0.006
   0.05280189 -0.05280189  0.00000000       0.001
   0.07040252  0.07040252  0.05573256       0.003
   0.07040252  0.08800315  0.06269913       0.006
   0.07040252  0.10560378  0.06966571       0.006
   0.07040252  0.12320441  0.07663228       0.006
   0.07040252 -0.10560378 -0.01393314       0.006
   0.07040252 -0.08800315 -0.00696657       0.006
   0.07040252 -0.07040252  0.00000000       0.001
   0.08800315  0.08800315  0.06966571       0.003
   0.08800315  0.10560378  0.07663228       0.006
   0.08800315  0.12320441  0.08359885       0.006
   0.08800315 -0.10560378 -0.00696657       0.006
   0.08800315 -0.08800315  0.00000000       0.001
   0.10560378  0.10560378  0.08359885       0.003
   0.10560378  0.12320441  0.09056542       0.006
   0.10560378 -0.10560378  0.00000000       0.001
   0.12320441  0.12320441  0.09753199       0.001
   0.03520126  0.03520126  0.01393314       0.003
   0.03520126  0.05280189  0.02089971       0.006
   0.03520126  0.07040252  0.02786628       0.006
   0.03520126  0.08800315  0.03483285       0.006
   0.03520126  0.10560378  0.04179942       0.006
   0.03520126  0.12320441  0.04876599       0.003
   0.03520126  0.00000000  0.00000000       0.001
   0.05280189  0.05280189  0.02786628       0.003
   0.05280189  0.07040252  0.03483285       0.006
   0.05280189  0.08800315  0.04179942       0.006
   0.05280189  0.10560378  0.04876599       0.006
   0.05280189  0.12320441  0.05573256       0.006
   0.05280189  0.14080504  0.06269913       0.006
   0.05280189 -0.08800315 -0.02786628       0.006
   0.05280189 -0.07040252 -0.02089971       0.006
   0.05280189 -0.05280189 -0.01393314       0.003
   0.05280189 -0.01760063  0.00000000       0.003
   0.05280189  0.00000000  0.00696657       0.003
   0.07040252  0.07040252  0.04179942       0.003
   0.07040252  0.08800315  0.04876599       0.006
   0.07040252  0.10560378  0.05573256       0.006
   0.07040252  0.12320441  0.06269913       0.006
   0.07040252  0.14080504  0.06966571       0.006
   0.07040252 -0.08800315 -0.02089971       0.006
   0.07040252 -0.07040252 -0.01393314       0.003
   0.07040252 -0.03520126  0.00000000       0.003
   0.07040252 -0.01760063  0.00696657       0.006
   0.07040252  0.00000000  0.01393314       0.003
   0.08800315  0.08800315  0.05573256       0.003
   0.08800315  0.10560378  0.06269913       0.006
   0.08800315  0.12320441  0.06966571       0.006
   0.08800315  0.14080504  0.07663228       0.006
   0.08800315 -0.08800315 -0.01393314       0.003
   0.08800315 -0.05280189  0.00000000       0.003
   0.08800315 -0.03520126  0.00696657       0.006
   0.08800315 -0.01760063  0.01393314       0.006
   0.08800315  0.00000000  0.02089971       0.003
   0.10560378  0.10560378  0.06966571       0.003
   0.10560378  0.12320441  0.07663228       0.006
   0.10560378  0.14080504  0.08359885       0.003
   0.10560378 -0.07040252  0.00000000       0.003
   0.10560378 -0.05280189  0.00696657       0.006
   0.10560378 -0.03520126  0.01393314       0.006
   0.10560378 -0.01760063  0.02089971       0.006
   0.10560378  0.00000000  0.02786628       0.003
   0.12320441  0.12320441  0.08359885       0.001
   0.12320441 -0.08800315  0.00000000       0.003
   0.12320441 -0.07040252  0.00696657       0.006
   0.12320441 -0.05280189  0.01393314       0.006
   0.12320441 -0.03520126  0.02089971       0.006
   0.12320441 -0.01760063  0.02786628       0.006
   0.12320441  0.00000000  0.03483285       0.003
   0.14080504  0.14080504  0.09753199       0.001
   0.14080504 -0.08800315  0.00696657       0.006
   0.14080504 -0.07040252  0.01393314       0.006
   0.14080504 -0.05280189  0.02089971       0.006
   0.14080504 -0.03520126  0.02786628       0.006
   0.14080504 -0.01760063  0.03483285       0.006
   0.14080504  0.00000000  0.04179942       0.003
  -0.08800315 -0.08800315 -0.08359885       0.003
  -0.08800315 -0.07040252 -0.07663228       0.006
  -0.08800315 -0.05280189 -0.06966571       0.006
  -0.08800315 -0.03520126 -0.06269913       0.006
  -0.08800315 -0.01760063 -0.05573256       0.006
  -0.08800315  0.00000000 -0.04876599       0.003
  -0.07040252 -0.07040252 -0.06966571       0.003
  -0.07040252 -0.05280189 -0.06269913       0.006
  -0.07040252 -0.03520126 -0.05573256       0.006
  -0.07040252 -0.01760063 -0.04876599       0.006
  -0.07040252  0.00000000 -0.04179942       0.003
  -0.05280189 -0.05280189 -0.05573256       0.003
  -0.05280189 -0.03520126 -0.04876599       0.006
  -0.05280189 -0.01760063 -0.04179942       0.006
  -0.05280189  0.00000000 -0.03483285       0.003
  -0.03520126 -0.03520126 -0.04179942       0.003
  -0.03520126 -0.01760063 -0.03483285       0.006
  -0.03520126  0.00000000 -0.02786628       0.003
  -0.01760063 -0.01760063 -0.02786628       0.003
  -0.01760063  0.00000000 -0.02089971       0.003
   0.00000000  0.00000000 -0.01393314       0.001
   0.07040252  0.07040252  0.02786628       0.003
   0.07040252  0.08800315  0.03483285       0.006
   0.07040252  0.10560378  0.04179942       0.006
   0.07040252  0.12320441  0.04876599       0.003
   0.07040252  0.00000000  0.00000000       0.001
   0.08800315  0.08800315  0.04179942       0.003
   0.08800315  0.10560378  0.04876599       0.006
   0.08800315  0.12320441  0.05573256       0.006
   0.08800315  0.14080504  0.06269913       0.006
   0.08800315  0.15840567  0.06966571       0.003
   0.08800315 -0.01760063  0.00000000       0.003
   0.08800315  0.00000000  0.00696657       0.003
   0.10560378  0.10560378  0.05573256       0.003
   0.10560378  0.12320441  0.06269913       0.006
   0.10560378  0.14080504  0.06966571       0.003
   0.10560378 -0.03520126  0.00000000       0.003
   0.10560378 -0.01760063  0.00696657       0.006
   0.10560378  0.00000000  0.01393314       0.003
   0.12320441  0.12320441  0.06966571       0.001
   0.12320441 -0.05280189  0.00000000       0.003
   0.12320441 -0.03520126  0.00696657       0.006
   0.12320441 -0.01760063  0.01393314       0.006
   0.12320441  0.00000000  0.02089971       0.003
   0.14080504 -0.07040252  0.00000000       0.003
   0.14080504 -0.05280189  0.00696657       0.006
   0.14080504 -0.03520126  0.01393314       0.006
   0.14080504 -0.01760063  0.02089971       0.006
   0.14080504  0.00000000  0.02786628       0.003
   0.15840567  0.15840567  0.09753199       0.001
   0.15840567 -0.07040252  0.00696657       0.006
   0.15840567 -0.05280189  0.01393314       0.006
   0.15840567 -0.03520126  0.02089971       0.006
   0.15840567 -0.01760063  0.02786628       0.006
   0.15840567  0.00000000  0.03483285       0.003
  -0.07040252 -0.07040252 -0.08359885       0.003
  -0.07040252 -0.05280189 -0.07663228       0.006
  -0.07040252 -0.03520126 -0.06966571       0.006
  -0.07040252 -0.01760063 -0.06269913       0.006
  -0.07040252  0.00000000 -0.05573256       0.003
  -0.05280189 -0.05280189 -0.06966571       0.003
  -0.05280189 -0.03520126 -0.06269913       0.006
  -0.05280189 -0.01760063 -0.05573256       0.006
  -0.05280189  0.00000000 -0.04876599       0.003
  -0.03520126 -0.03520126 -0.05573256       0.003
  -0.03520126 -0.01760063 -0.04876599       0.006
  -0.03520126  0.00000000 -0.04179942       0.003
  -0.01760063 -0.01760063 -0.04179942       0.003
  -0.01760063  0.00000000 -0.03483285       0.003
   0.00000000  0.00000000 -0.02786628       0.001
   0.10560378  0.10560378  0.04179942       0.003
   0.10560378  0.12320441  0.04876599       0.003
   0.10560378  0.00000000  0.00000000       0.001
   0.12320441  0.12320441  0.05573256       0.001
   0.12320441 -0.01760063  0.00000000       0.003
   0.12320441  0.00000000  0.00696657       0.003
   0.14080504 -0.03520126  0.00000000       0.003
   0.14080504 -0.01760063  0.00696657       0.006
   0.14080504  0.00000000  0.01393314       0.003
   0.15840567 -0.05280189  0.00000000       0.003
   0.15840567 -0.03520126  0.00696657       0.006
   0.15840567 -0.01760063  0.01393314       0.006
   0.15840567  0.00000000  0.02089971       0.003
   0.17600630  0.17600630  0.09753199       0.001
   0.17600630 -0.05280189  0.00696657       0.006
   0.17600630 -0.03520126  0.01393314       0.006
   0.17600630 -0.01760063  0.02089971       0.006
   0.17600630  0.00000000  0.02786628       0.003
  -0.05280189 -0.05280189 -0.08359885       0.003
  -0.05280189 -0.03520126 -0.07663228       0.006
  -0.05280189 -0.01760063 -0.06966571       0.006
  -0.05280189  0.00000000 -0.06269913       0.003
  -0.03520126 -0.03520126 -0.06966571       0.003
  -0.03520126 -0.01760063 -0.06269913       0.006
  -0.03520126  0.00000000 -0.05573256       0.003
  -0.01760063 -0.01760063 -0.05573256       0.003
  -0.01760063  0.00000000 -0.04876599       0.003
   0.00000000  0.00000000 -0.04179942       0.001
   0.14080504  0.00000000  0.00000000       0.001
   0.15840567 -0.01760063  0.00000000       0.003
   0.15840567  0.00000000  0.00696657       0.003
   0.17600630 -0.03520126  0.00000000       0.003
   0.17600630 -0.01760063  0.00696657       0.006
   0.17600630  0.00000000  0.01393314       0.003
   0.19360692  0.19360692  0.09753199       0.001
   0.19360692 -0.03520126  0.00696657       0.006
   0.19360692 -0.01760063  0.01393314       0.006
   0.19360692  0.00000000  0.02089971       0.003
  -0.03520126 -0.03520126 -0.08359885       0.003
  -0.03520126 -0.01760063 -0.07663228       0.006
  -0.03520126  0.00000000 -0.06966571       0.003
  -0.01760063 -0.01760063 -0.06966571       0.003
  -0.01760063  0.00000000 -0.06269913       0.003
   0.00000000  0.00000000 -0.05573256       0.001
   0.17600630  0.00000000  0.00000000       0.001
   0.19360692 -0.01760063  0.00000000       0.003
   0.19360692  0.00000000  0.00696657       0.003
   0.21120755  0.21120755  0.09753199       0.001
   0.21120755 -0.01760063  0.00696657       0.006
   0.21120755  0.00000000  0.01393314       0.003
  -0.01760063 -0.01760063 -0.08359885       0.003
  -0.01760063  0.00000000 -0.07663228       0.003
   0.00000000  0.00000000 -0.06966571       0.001
   0.21120755  0.00000000  0.00000000       0.001
   0.22880818  0.22880818  0.09753199       0.001
   0.22880818  0.00000000  0.00696657       0.003
   0.00000000  0.00000000 -0.08359885       0.001
   0.24640881  0.24640881  0.09753199       0.000
 
 k-points in reciprocal lattice and weights: K-Mesh                                  
   0.00000000  0.00000000  0.00000000       0.000
   0.07142857  0.00000000  0.00000000       0.003
   0.14285714  0.00000000  0.00000000       0.003
   0.21428571  0.00000000  0.00000000       0.003
   0.28571429  0.00000000  0.00000000       0.003
   0.35714286  0.00000000  0.00000000       0.003
   0.42857143  0.00000000  0.00000000       0.003
   0.50000000  0.00000000  0.00000000       0.001
   0.07142857  0.07142857  0.00000000       0.003
   0.14285714  0.07142857  0.00000000       0.006
   0.21428571  0.07142857  0.00000000       0.006
   0.28571429  0.07142857  0.00000000       0.006
   0.35714286  0.07142857  0.00000000       0.006
   0.42857143  0.07142857  0.00000000       0.006
   0.50000000  0.07142857  0.00000000       0.006
  -0.42857143  0.07142857  0.00000000       0.006
  -0.35714286  0.07142857  0.00000000       0.006
  -0.28571429  0.07142857  0.00000000       0.006
  -0.21428571  0.07142857  0.00000000       0.006
  -0.14285714  0.07142857  0.00000000       0.006
  -0.07142857  0.07142857  0.00000000       0.001
   0.14285714  0.14285714  0.00000000       0.003
   0.21428571  0.14285714  0.00000000       0.006
   0.28571429  0.14285714  0.00000000       0.006
   0.35714286  0.14285714  0.00000000       0.006
   0.42857143  0.14285714  0.00000000       0.006
   0.50000000  0.14285714  0.00000000       0.006
  -0.42857143  0.14285714  0.00000000       0.006
  -0.35714286  0.14285714  0.00000000       0.006
  -0.28571429  0.14285714  0.00000000       0.006
  -0.21428571  0.14285714  0.00000000       0.006
  -0.14285714  0.14285714  0.00000000       0.001
   0.21428571  0.21428571  0.00000000       0.003
   0.28571429  0.21428571  0.00000000       0.006
   0.35714286  0.21428571  0.00000000       0.006
   0.42857143  0.21428571  0.00000000       0.006
   0.50000000  0.21428571  0.00000000       0.006
  -0.42857143  0.21428571  0.00000000       0.006
  -0.35714286  0.21428571  0.00000000       0.006
  -0.28571429  0.21428571  0.00000000       0.006
  -0.21428571  0.21428571  0.00000000       0.001
   0.28571429  0.28571429  0.00000000       0.003
   0.35714286  0.28571429  0.00000000       0.006
   0.42857143  0.28571429  0.00000000       0.006
   0.50000000  0.28571429  0.00000000       0.006
  -0.42857143  0.28571429  0.00000000       0.006
  -0.35714286  0.28571429  0.00000000       0.006
  -0.28571429  0.28571429  0.00000000       0.001
   0.35714286  0.35714286  0.00000000       0.003
   0.42857143  0.35714286  0.00000000       0.006
   0.50000000  0.35714286  0.00000000       0.006
  -0.42857143  0.35714286  0.00000000       0.006
  -0.35714286  0.35714286  0.00000000       0.001
   0.42857143  0.42857143  0.00000000       0.003
   0.50000000  0.42857143  0.00000000       0.006
  -0.42857143  0.42857143  0.00000000       0.001
   0.50000000  0.50000000  0.00000000       0.001
   0.07142857  0.07142857  0.07142857       0.003
   0.14285714  0.07142857  0.07142857       0.006
   0.21428571  0.07142857  0.07142857       0.006
   0.28571429  0.07142857  0.07142857       0.006
   0.35714286  0.07142857  0.07142857       0.006
   0.42857143  0.07142857  0.07142857       0.003
  -0.07142857  0.07142857  0.07142857       0.001
   0.14285714  0.14285714  0.07142857       0.003
   0.21428571  0.14285714  0.07142857       0.006
   0.28571429  0.14285714  0.07142857       0.006
   0.35714286  0.14285714  0.07142857       0.006
   0.42857143  0.14285714  0.07142857       0.006
   0.50000000  0.14285714  0.07142857       0.006
  -0.42857143  0.14285714  0.07142857       0.006
  -0.35714286  0.14285714  0.07142857       0.006
  -0.28571429  0.14285714  0.07142857       0.003
  -0.14285714  0.14285714  0.07142857       0.003
  -0.07142857  0.14285714  0.07142857       0.003
   0.21428571  0.21428571  0.07142857       0.003
   0.28571429  0.21428571  0.07142857       0.006
   0.35714286  0.21428571  0.07142857       0.006
   0.42857143  0.21428571  0.07142857       0.006
   0.50000000  0.21428571  0.07142857       0.006
  -0.42857143  0.21428571  0.07142857       0.006
  -0.35714286  0.21428571  0.07142857       0.003
  -0.21428571  0.21428571  0.07142857       0.003
  -0.14285714  0.21428571  0.07142857       0.006
  -0.07142857  0.21428571  0.07142857       0.003
   0.28571429  0.28571429  0.07142857       0.003
   0.35714286  0.28571429  0.07142857       0.006
   0.42857143  0.28571429  0.07142857       0.006
   0.50000000  0.28571429  0.07142857       0.006
  -0.42857143  0.28571429  0.07142857       0.003
  -0.28571429  0.28571429  0.07142857       0.003
  -0.21428571  0.28571429  0.07142857       0.006
  -0.14285714  0.28571429  0.07142857       0.006
  -0.07142857  0.28571429  0.07142857       0.003
   0.35714286  0.35714286  0.07142857       0.003
   0.42857143  0.35714286  0.07142857       0.006
   0.50000000  0.35714286  0.07142857       0.003
  -0.35714286  0.35714286  0.07142857       0.003
  -0.28571429  0.35714286  0.07142857       0.006
  -0.21428571  0.35714286  0.07142857       0.006
  -0.14285714  0.35714286  0.07142857       0.006
  -0.07142857  0.35714286  0.07142857       0.003
   0.42857143  0.42857143  0.07142857       0.001
  -0.42857143  0.42857143  0.07142857       0.003
  -0.35714286  0.42857143  0.07142857       0.006
  -0.28571429  0.42857143  0.07142857       0.006
  -0.21428571  0.42857143  0.07142857       0.006
  -0.14285714  0.42857143  0.07142857       0.006
  -0.07142857  0.42857143  0.07142857       0.003
   0.50000000  0.50000000  0.07142857       0.001
  -0.42857143  0.50000000  0.07142857       0.006
  -0.35714286  0.50000000  0.07142857       0.006
  -0.28571429  0.50000000  0.07142857       0.006
  -0.21428571  0.50000000  0.07142857       0.006
  -0.14285714  0.50000000  0.07142857       0.006
  -0.07142857  0.50000000  0.07142857       0.003
  -0.42857143 -0.42857143  0.07142857       0.003
  -0.35714286 -0.42857143  0.07142857       0.006
  -0.28571429 -0.42857143  0.07142857       0.006
  -0.21428571 -0.42857143  0.07142857       0.006
  -0.14285714 -0.42857143  0.07142857       0.006
  -0.07142857 -0.42857143  0.07142857       0.003
  -0.35714286 -0.35714286  0.07142857       0.003
  -0.28571429 -0.35714286  0.07142857       0.006
  -0.21428571 -0.35714286  0.07142857       0.006
  -0.14285714 -0.35714286  0.07142857       0.006
  -0.07142857 -0.35714286  0.07142857       0.003
  -0.28571429 -0.28571429  0.07142857       0.003
  -0.21428571 -0.28571429  0.07142857       0.006
  -0.14285714 -0.28571429  0.07142857       0.006
  -0.07142857 -0.28571429  0.07142857       0.003
  -0.21428571 -0.21428571  0.07142857       0.003
  -0.14285714 -0.21428571  0.07142857       0.006
  -0.07142857 -0.21428571  0.07142857       0.003
  -0.14285714 -0.14285714  0.07142857       0.003
  -0.07142857 -0.14285714  0.07142857       0.003
  -0.07142857 -0.07142857  0.07142857       0.001
   0.14285714  0.14285714  0.14285714       0.003
   0.21428571  0.14285714  0.14285714       0.006
   0.28571429  0.14285714  0.14285714       0.006
   0.35714286  0.14285714  0.14285714       0.003
  -0.14285714  0.14285714  0.14285714       0.001
   0.21428571  0.21428571  0.14285714       0.003
   0.28571429  0.21428571  0.14285714       0.006
   0.35714286  0.21428571  0.14285714       0.006
   0.42857143  0.21428571  0.14285714       0.006
   0.50000000  0.21428571  0.14285714       0.003
  -0.21428571  0.21428571  0.14285714       0.003
  -0.14285714  0.21428571  0.14285714       0.003
   0.28571429  0.28571429  0.14285714       0.003
   0.35714286  0.28571429  0.14285714       0.006
   0.42857143  0.28571429  0.14285714       0.003
  -0.28571429  0.28571429  0.14285714       0.003
  -0.21428571  0.28571429  0.14285714       0.006
  -0.14285714  0.28571429  0.14285714       0.003
   0.35714286  0.35714286  0.14285714       0.001
  -0.35714286  0.35714286  0.14285714       0.003
  -0.28571429  0.35714286  0.14285714       0.006
  -0.21428571  0.35714286  0.14285714       0.006
  -0.14285714  0.35714286  0.14285714       0.003
  -0.42857143  0.42857143  0.14285714       0.003
  -0.35714286  0.42857143  0.14285714       0.006
  -0.28571429  0.42857143  0.14285714       0.006
  -0.21428571  0.42857143  0.14285714       0.006
  -0.14285714  0.42857143  0.14285714       0.003
   0.50000000  0.50000000  0.14285714       0.001
  -0.42857143  0.50000000  0.14285714       0.006
  -0.35714286  0.50000000  0.14285714       0.006
  -0.28571429  0.50000000  0.14285714       0.006
  -0.21428571  0.50000000  0.14285714       0.006
  -0.14285714  0.50000000  0.14285714       0.003
  -0.42857143 -0.42857143  0.14285714       0.003
  -0.35714286 -0.42857143  0.14285714       0.006
  -0.28571429 -0.42857143  0.14285714       0.006
  -0.21428571 -0.42857143  0.14285714       0.006
  -0.14285714 -0.42857143  0.14285714       0.003
  -0.35714286 -0.35714286  0.14285714       0.003
  -0.28571429 -0.35714286  0.14285714       0.006
  -0.21428571 -0.35714286  0.14285714       0.006
  -0.14285714 -0.35714286  0.14285714       0.003
  -0.28571429 -0.28571429  0.14285714       0.003
  -0.21428571 -0.28571429  0.14285714       0.006
  -0.14285714 -0.28571429  0.14285714       0.003
  -0.21428571 -0.21428571  0.14285714       0.003
  -0.14285714 -0.21428571  0.14285714       0.003
  -0.14285714 -0.14285714  0.14285714       0.001
   0.21428571  0.21428571  0.21428571       0.003
   0.28571429  0.21428571  0.21428571       0.003
  -0.21428571  0.21428571  0.21428571       0.001
   0.28571429  0.28571429  0.21428571       0.001
  -0.28571429  0.28571429  0.21428571       0.003
  -0.21428571  0.28571429  0.21428571       0.003
  -0.35714286  0.35714286  0.21428571       0.003
  -0.28571429  0.35714286  0.21428571       0.006
  -0.21428571  0.35714286  0.21428571       0.003
  -0.42857143  0.42857143  0.21428571       0.003
  -0.35714286  0.42857143  0.21428571       0.006
  -0.28571429  0.42857143  0.21428571       0.006
  -0.21428571  0.42857143  0.21428571       0.003
   0.50000000  0.50000000  0.21428571       0.001
  -0.42857143  0.50000000  0.21428571       0.006
  -0.35714286  0.50000000  0.21428571       0.006
  -0.28571429  0.50000000  0.21428571       0.006
  -0.21428571  0.50000000  0.21428571       0.003
  -0.42857143 -0.42857143  0.21428571       0.003
  -0.35714286 -0.42857143  0.21428571       0.006
  -0.28571429 -0.42857143  0.21428571       0.006
  -0.21428571 -0.42857143  0.21428571       0.003
  -0.35714286 -0.35714286  0.21428571       0.003
  -0.28571429 -0.35714286  0.21428571       0.006
  -0.21428571 -0.35714286  0.21428571       0.003
  -0.28571429 -0.28571429  0.21428571       0.003
  -0.21428571 -0.28571429  0.21428571       0.003
  -0.21428571 -0.21428571  0.21428571       0.001
  -0.28571429  0.28571429  0.28571429       0.001
  -0.35714286  0.35714286  0.28571429       0.003
  -0.28571429  0.35714286  0.28571429       0.003
  -0.42857143  0.42857143  0.28571429       0.003
  -0.35714286  0.42857143  0.28571429       0.006
  -0.28571429  0.42857143  0.28571429       0.003
   0.50000000  0.50000000  0.28571429       0.001
  -0.42857143  0.50000000  0.28571429       0.006
  -0.35714286  0.50000000  0.28571429       0.006
  -0.28571429  0.50000000  0.28571429       0.003
  -0.42857143 -0.42857143  0.28571429       0.003
  -0.35714286 -0.42857143  0.28571429       0.006
  -0.28571429 -0.42857143  0.28571429       0.003
  -0.35714286 -0.35714286  0.28571429       0.003
  -0.28571429 -0.35714286  0.28571429       0.003
  -0.28571429 -0.28571429  0.28571429       0.001
  -0.35714286  0.35714286  0.35714286       0.001
  -0.42857143  0.42857143  0.35714286       0.003
  -0.35714286  0.42857143  0.35714286       0.003
   0.50000000  0.50000000  0.35714286       0.001
  -0.42857143  0.50000000  0.35714286       0.006
  -0.35714286  0.50000000  0.35714286       0.003
  -0.42857143 -0.42857143  0.35714286       0.003
  -0.35714286 -0.42857143  0.35714286       0.003
  -0.35714286 -0.35714286  0.35714286       0.001
  -0.42857143  0.42857143  0.42857143       0.001
   0.50000000  0.50000000  0.42857143       0.001
  -0.42857143  0.50000000  0.42857143       0.003
  -0.42857143 -0.42857143  0.42857143       0.001
   0.50000000  0.50000000  0.50000000       0.000
 
 position of ions in fractional coordinates (direct lattice) 
   0.00000000  0.00000000  0.00000000
   0.75000000  0.25000000  0.50000000
   0.50000000  0.50000000  0.00000000
   0.25000000  0.75000000  0.50000000
   0.30931193  0.30931193  0.00000000
   0.69068807  0.69068807  0.00000000
 
 position of ions in cartesian coordinates  (Angst):
   0.00000000  0.00000000  0.00000000
  -0.00000000  2.02914820  2.56326162
   0.00000000  0.00000000  5.12652325
   2.02914820 -0.00000000  2.56326162
   0.00000000  0.00000000  3.17138959
   0.00000000  0.00000000  7.08165691
 


--------------------------------------------------------------------------------------------------------


 k-point  1 :   0.0000 0.0000 0.0000  plane waves:    2299
 k-point  2 :   0.0714 0.0000 0.0000  plane waves:    2280
 k-point  3 :   0.1429 0.0000 0.0000  plane waves:    2284
 k-point  4 :   0.2143 0.0000 0.0000  plane waves:    2274
 k-point  5 :   0.2857 0.0000 0.0000  plane waves:    2277
 k-point  6 :   0.3571 0.0000 0.0000  plane waves:    2276
 k-point  7 :   0.4286 0.0000 0.0000  plane waves:    2270
 k-point  8 :   0.5000 0.0000 0.0000  plane waves:    2262
 k-point  9 :   0.0714 0.0714 0.0000  plane waves:    2281
 k-point 10 :   0.1429 0.0714 0.0000  plane waves:    2280
 k-point 11 :   0.2143 0.0714 0.0000  plane waves:    2283
 k-point 12 :   0.2857 0.0714 0.0000  plane waves:    2273
 k-point 13 :   0.3571 0.0714 0.0000  plane waves:    2270
 k-point 14 :   0.4286 0.0714 0.0000  plane waves:    2275
 k-point 15 :   0.5000 0.0714 0.0000  plane waves:    2261
 k-point 16 :  -0.4286 0.0714 0.0000  plane waves:    2267
 k-point 17 :  -0.3571 0.0714 0.0000  plane waves:    2267
 k-point 18 :  -0.2857 0.0714 0.0000  plane waves:    2273
 k-point 19 :  -0.2143 0.0714 0.0000  plane waves:    2275
 k-point 20 :  -0.1429 0.0714 0.0000  plane waves:    2277
 k-point 21 :  -0.0714 0.0714 0.0000  plane waves:    2279
 k-point 22 :   0.1429 0.1429 0.0000  plane waves:    2273
 k-point 23 :   0.2143 0.1429 0.0000  plane waves:    2276
 k-point 24 :   0.2857 0.1429 0.0000  plane waves:    2275
 k-point 25 :   0.3571 0.1429 0.0000  plane waves:    2271
 k-point 26 :   0.4286 0.1429 0.0000  plane waves:    2266
 k-point 27 :   0.5000 0.1429 0.0000  plane waves:    2263
 k-point 28 :  -0.4286 0.1429 0.0000  plane waves:    2270
 k-point 29 :  -0.3571 0.1429 0.0000  plane waves:    2272
 k-point 30 :  -0.2857 0.1429 0.0000  plane waves:    2273
 k-point 31 :  -0.2143 0.1429 0.0000  plane waves:    2264
 k-point 32 :  -0.1429 0.1429 0.0000  plane waves:    2263
 k-point 33 :   0.2143 0.2143 0.0000  plane waves:    2285
 k-point 34 :   0.2857 0.2143 0.0000  plane waves:    2275
 k-point 35 :   0.3571 0.2143 0.0000  plane waves:    2272
 k-point 36 :   0.4286 0.2143 0.0000  plane waves:    2273
 k-point 37 :   0.5000 0.2143 0.0000  plane waves:    2263
 k-point 38 :  -0.4286 0.2143 0.0000  plane waves:    2263
 k-point 39 :  -0.3571 0.2143 0.0000  plane waves:    2264
 k-point 40 :  -0.2857 0.2143 0.0000  plane waves:    2267
 k-point 41 :  -0.2143 0.2143 0.0000  plane waves:    2271
 k-point 42 :   0.2857 0.2857 0.0000  plane waves:    2279
 k-point 43 :   0.3571 0.2857 0.0000  plane waves:    2271
 k-point 44 :   0.4286 0.2857 0.0000  plane waves:    2274
 k-point 45 :   0.5000 0.2857 0.0000  plane waves:    2263
 k-point 46 :  -0.4286 0.2857 0.0000  plane waves:    2262
 k-point 47 :  -0.3571 0.2857 0.0000  plane waves:    2267
 k-point 48 :  -0.2857 0.2857 0.0000  plane waves:    2273
 k-point 49 :   0.3571 0.3571 0.0000  plane waves:    2265
 k-point 50 :   0.4286 0.3571 0.0000  plane waves:    2260
 k-point 51 :   0.5000 0.3571 0.0000  plane waves:    2266
 k-point 52 :  -0.4286 0.3571 0.0000  plane waves:    2275
 k-point 53 :  -0.3571 0.3571 0.0000  plane waves:    2270
 k-point 54 :   0.4286 0.4286 0.0000  plane waves:    2261
 k-point 55 :   0.5000 0.4286 0.0000  plane waves:    2260
 k-point 56 :  -0.4286 0.4286 0.0000  plane waves:    2270
 k-point 57 :   0.5000 0.5000 0.0000  plane waves:    2242
 k-point 58 :   0.0714 0.0714 0.0714  plane waves:    2267
 k-point 59 :   0.1429 0.0714 0.0714  plane waves:    2274
 k-point 60 :   0.2143 0.0714 0.0714  plane waves:    2272
 k-point 61 :   0.2857 0.0714 0.0714  plane waves:    2261
 k-point 62 :   0.3571 0.0714 0.0714  plane waves:    2263
 k-point 63 :   0.4286 0.0714 0.0714  plane waves:    2256
 k-point 64 :  -0.0714 0.0714 0.0714  plane waves:    2279
 k-point 65 :   0.1429 0.1429 0.0714  plane waves:    2276
 k-point 66 :   0.2143 0.1429 0.0714  plane waves:    2280
 k-point 67 :   0.2857 0.1429 0.0714  plane waves:    2273
 k-point 68 :   0.3571 0.1429 0.0714  plane waves:    2262
 k-point 69 :   0.4286 0.1429 0.0714  plane waves:    2267
 k-point 70 :   0.5000 0.1429 0.0714  plane waves:    2265
 k-point 71 :  -0.4286 0.1429 0.0714  plane waves:    2265
 k-point 72 :  -0.3571 0.1429 0.0714  plane waves:    2268
 k-point 73 :  -0.2857 0.1429 0.0714  plane waves:    2269
 k-point 74 :  -0.1429 0.1429 0.0714  plane waves:    2264
 k-point 75 :  -0.0714 0.1429 0.0714  plane waves:    2278
 k-point 76 :   0.2143 0.2143 0.0714  plane waves:    2280
 k-point 77 :   0.2857 0.2143 0.0714  plane waves:    2277
 k-point 78 :   0.3571 0.2143 0.0714  plane waves:    2269
 k-point 79 :   0.4286 0.2143 0.0714  plane waves:    2271
 k-point 80 :   0.5000 0.2143 0.0714  plane waves:    2267
 k-point 81 :  -0.4286 0.2143 0.0714  plane waves:    2266
 k-point 82 :  -0.3571 0.2143 0.0714  plane waves:    2274
 k-point 83 :  -0.2143 0.2143 0.0714  plane waves:    2260
 k-point 84 :  -0.1429 0.2143 0.0714  plane waves:    2269
 k-point 85 :  -0.0714 0.2143 0.0714  plane waves:    2280
 k-point 86 :   0.2857 0.2857 0.0714  plane waves:    2270
 k-point 87 :   0.3571 0.2857 0.0714  plane waves:    2268
 k-point 88 :   0.4286 0.2857 0.0714  plane waves:    2264
 k-point 89 :   0.5000 0.2857 0.0714  plane waves:    2274
 k-point 90 :  -0.4286 0.2857 0.0714  plane waves:    2268
 k-point 91 :  -0.2857 0.2857 0.0714  plane waves:    2270
 k-point 92 :  -0.2143 0.2857 0.0714  plane waves:    2267
 k-point 93 :  -0.1429 0.2857 0.0714  plane waves:    2265
 k-point 94 :  -0.0714 0.2857 0.0714  plane waves:    2272
 k-point 95 :   0.3571 0.3571 0.0714  plane waves:    2263
 k-point 96 :   0.4286 0.3571 0.0714  plane waves:    2266
 k-point 97 :   0.5000 0.3571 0.0714  plane waves:    2268
 k-point 98 :  -0.3571 0.3571 0.0714  plane waves:    2262
 k-point 99 :  -0.2857 0.3571 0.0714  plane waves:    2273
 k-point ** :  -0.2143 0.3571 0.0714  plane waves:    2272
 k-point ** :  -0.1429 0.3571 0.0714  plane waves:    2265
 k-point ** :  -0.0714 0.3571 0.0714  plane waves:    2270
 k-point ** :   0.4286 0.4286 0.0714  plane waves:    2264
 k-point ** :  -0.4286 0.4286 0.0714  plane waves:    2266
 k-point ** :  -0.3571 0.4286 0.0714  plane waves:    2262
 k-point ** :  -0.2857 0.4286 0.0714  plane waves:    2266
 k-point ** :  -0.2143 0.4286 0.0714  plane waves:    2268
 k-point ** :  -0.1429 0.4286 0.0714  plane waves:    2269
 k-point ** :  -0.0714 0.4286 0.0714  plane waves:    2264
 k-point ** :   0.5000 0.5000 0.0714  plane waves:    2254
 k-point ** :  -0.4286 0.5000 0.0714  plane waves:    2252
 k-point ** :  -0.3571 0.5000 0.0714  plane waves:    2257
 k-point ** :  -0.2857 0.5000 0.0714  plane waves:    2266
 k-point ** :  -0.2143 0.5000 0.0714  plane waves:    2269
 k-point ** :  -0.1429 0.5000 0.0714  plane waves:    2274
 k-point ** :  -0.0714 0.5000 0.0714  plane waves:    2275
 k-point ** :  -0.4286-0.4286 0.0714  plane waves:    2256
 k-point ** :  -0.3571-0.4286 0.0714  plane waves:    2271
 k-point ** :  -0.2857-0.4286 0.0714  plane waves:    2273
 k-point ** :  -0.2143-0.4286 0.0714  plane waves:    2278
 k-point ** :  -0.1429-0.4286 0.0714  plane waves:    2274
 k-point ** :  -0.0714-0.4286 0.0714  plane waves:    2274
 k-point ** :  -0.3571-0.3571 0.0714  plane waves:    2273
 k-point ** :  -0.2857-0.3571 0.0714  plane waves:    2278
 k-point ** :  -0.2143-0.3571 0.0714  plane waves:    2282
 k-point ** :  -0.1429-0.3571 0.0714  plane waves:    2275
 k-point ** :  -0.0714-0.3571 0.0714  plane waves:    2275
 k-point ** :  -0.2857-0.2857 0.0714  plane waves:    2278
 k-point ** :  -0.2143-0.2857 0.0714  plane waves:    2283
 k-point ** :  -0.1429-0.2857 0.0714  plane waves:    2280
 k-point ** :  -0.0714-0.2857 0.0714  plane waves:    2280
 k-point ** :  -0.2143-0.2143 0.0714  plane waves:    2285
 k-point ** :  -0.1429-0.2143 0.0714  plane waves:    2281
 k-point ** :  -0.0714-0.2143 0.0714  plane waves:    2284
[...]
     17      -1.6006      2.00000
     18      -1.5522      2.00000
     19       7.0960      0.00000
     20       8.1155      0.00000
     21       8.3515      0.00000
     22       8.5835      0.00000
     23       9.4260      0.00000
     24       9.5498      0.00000

 k-point   234 :       0.5000    0.5000    0.3571
  band No.  band energies     occupation 
      1     -42.9401      2.00000
      2     -42.9301      2.00000
      3     -20.6368      2.00000
      4     -20.5789      2.00000
      5     -20.2572      2.00000
      6     -18.6971      2.00000
      7      -5.8947      2.00000
      8      -5.8320      2.00000
      9      -5.5365      2.00000
     10      -2.9412      2.00000
     11      -2.5666      2.00000
     12      -2.4269      2.00000
     13      -2.3023      2.00000
     14      -1.7550      2.00000
     15      -1.7526      2.00000
     16      -1.7486      2.00000
     17      -1.4308      2.00000
     18      -1.3664      2.00000
     19       7.1541      0.00000
     20       8.1526      0.00000
     21       8.2770      0.00000
     22       8.4338      0.00000
     23       8.9724      0.00000
     24       9.7119      0.00000

 k-point   235 :      -0.4286    0.5000    0.3571
  band No.  band energies     occupation 
      1     -42.9406      2.00000
      2     -42.9297      2.00000
      3     -20.6571      2.00000
      4     -20.5874      2.00000
      5     -20.2423      2.00000
      6     -18.6831      2.00000
      7      -5.9066      2.00000
      8      -5.7608      2.00000
      9      -5.5712      2.00000
     10      -2.8729      2.00000
     11      -2.6829      2.00000
     12      -2.4252      2.00000
     13      -2.2860      2.00000
     14      -1.7144      2.00000
     15      -1.6734      2.00000
     16      -1.6174      2.00000
     17      -1.4776      2.00000
     18      -1.4121      2.00000
     19       6.8728      0.00000
     20       7.9366      0.00000
     21       8.1722      0.00000
     22       8.5856      0.00000
     23       9.1026      0.00000
     24       9.5193      0.00000

 k-point   236 :      -0.3571    0.5000    0.3571
  band No.  band energies     occupation 
      1     -42.9408      2.00000
      2     -42.9296      2.00000
      3     -20.6710      2.00000
      4     -20.5840      2.00000
      5     -20.2372      2.00000
      6     -18.6768      2.00000
      7      -5.9235      2.00000
      8      -5.7205      2.00000
      9      -5.5946      2.00000
     10      -2.8062      2.00000
     11      -2.7704      2.00000
     12      -2.4471      2.00000
     13      -2.2415      2.00000
     14      -1.7020      2.00000
     15      -1.6046      2.00000
     16      -1.5609      2.00000
     17      -1.5065      2.00000
     18      -1.4651      2.00000
     19       6.7794      0.00000
     20       7.8371      0.00000
     21       7.9697      0.00000
     22       8.7439      0.00000
     23       9.2810      0.00000
     24       9.4621      0.00000

 k-point   237 :      -0.4286   -0.4286    0.3571
  band No.  band energies     occupation 
      1     -42.9412      2.00000
      2     -42.9293      2.00000
      3     -20.6845      2.00000
      4     -20.5924      2.00000
      5     -20.2258      2.00000
      6     -18.6642      2.00000
      7      -5.9298      2.00000
      8      -5.7101      2.00000
      9      -5.6184      2.00000
     10      -2.8550      2.00000
     11      -2.7637      2.00000
     12      -2.4299      2.00000
     13      -2.2413      2.00000
     14      -1.6855      2.00000
     15      -1.5955      2.00000
     16      -1.4955      2.00000
     17      -1.4881      2.00000
     18      -1.3800      2.00000
     19       6.6322      0.00000
     20       7.6052      0.00000
     21       7.9491      0.00000
     22       8.8932      0.00000
     23       9.0998      0.00000
     24       9.4229      0.00000

 k-point   238 :      -0.3571   -0.4286    0.3571
  band No.  band energies     occupation 
      1     -42.9414      2.00000
      2     -42.9291      2.00000
      3     -20.7021      2.00000
      4     -20.5865      2.00000
      5     -20.2203      2.00000
      6     -18.6556      2.00000
      7      -5.9569      2.00000
      8      -5.6763      2.00000
      9      -5.6434      2.00000
     10      -2.8317      2.00000
     11      -2.8239      2.00000
     12      -2.4449      2.00000
     13      -2.1807      2.00000
     14      -1.6775      2.00000
     15      -1.5473      2.00000
     16      -1.5368      2.00000
     17      -1.4017      2.00000
     18      -1.3924      2.00000
     19       6.5609      0.00000
     20       7.4426      0.00000
     21       7.7404      0.00000
     22       9.0471      0.00000
     23       9.2075      0.00000
     24       9.4948      0.00000

 k-point   239 :      -0.3571   -0.3571    0.3571
  band No.  band energies     occupation 
      1     -42.9417      2.00000
      2     -42.9289      2.00000
      3     -20.7214      2.00000
      4     -20.5798      2.00000
      5     -20.2143      2.00000
      6     -18.6458      2.00000
      7      -5.9923      2.00000
      8      -5.6555      2.00000
      9      -5.6555      2.00000
     10      -2.8527      2.00000
     11      -2.8527      2.00000
     12      -2.4516      2.00000
     13      -2.1092      2.00000
     14      -1.6726      2.00000
     15      -1.5400      2.00000
     16      -1.5400      2.00000
     17      -1.3517      2.00000
     18      -1.3517      2.00000
     19       6.5038      0.00000
     20       7.2210      0.00000
     21       7.5709      0.00000
     22       9.2091      0.00000
     23       9.2091      0.00000
     24       9.7015      0.00000

 k-point   240 :      -0.4286    0.4286    0.4286
  band No.  band energies     occupation 
      1     -42.9408      2.00000
      2     -42.9296      2.00000
      3     -20.6602      2.00000
      4     -20.5940      2.00000
      5     -20.2373      2.00000
      6     -18.6787      2.00000
      7      -5.9048      2.00000
      8      -5.7236      2.00000
      9      -5.5983      2.00000
     10      -2.8060      2.00000
     11      -2.7623      2.00000
     12      -2.4076      2.00000
     13      -2.3053      2.00000
     14      -1.7009      2.00000
     15      -1.5591      2.00000
     16      -1.5528      2.00000
     17      -1.5228      2.00000
     18      -1.5031      2.00000
     19       6.7630      0.00000
     20       7.8765      0.00000
     21       8.3876      0.00000
     22       8.3995      0.00000
     23       9.2617      0.00000
     24       9.3068      0.00000

 k-point   241 :       0.5000    0.5000    0.4286
  band No.  band energies     occupation 
      1     -42.9412      2.00000
      2     -42.9294      2.00000
      3     -20.6735      2.00000
      4     -20.6027      2.00000
      5     -20.2261      2.00000
      6     -18.6661      2.00000
      7      -5.9104      2.00000
      8      -5.7133      2.00000
      9      -5.6226      2.00000
     10      -2.8510      2.00000
     11      -2.7553      2.00000
     12      -2.3884      2.00000
     13      -2.3120      2.00000
     14      -1.6837      2.00000
     15      -1.5524      2.00000
     16      -1.5387      2.00000
     17      -1.4651      2.00000
     18      -1.4038      2.00000
     19       6.6124      0.00000
     20       7.6399      0.00000
     21       8.3620      0.00000
     22       8.5124      0.00000
     23       9.0847      0.00000
     24       9.3071      0.00000

 k-point   242 :      -0.4286    0.5000    0.4286
  band No.  band energies     occupation 
      1     -42.9414      2.00000
      2     -42.9292      2.00000
      3     -20.6834      2.00000
      4     -20.6039      2.00000
      5     -20.2204      2.00000
      6     -18.6594      2.00000
      7      -5.9186      2.00000
      8      -5.6835      2.00000
      9      -5.6510      2.00000
     10      -2.8190      2.00000
     11      -2.8073      2.00000
     12      -2.3982      2.00000
     13      -2.2907      2.00000
     14      -1.6723      2.00000
     15      -1.5080      2.00000
     16      -1.4982      2.00000
     17      -1.4425      2.00000
     18      -1.4318      2.00000
     19       6.5213      0.00000
     20       7.5338      0.00000
     21       8.1736      0.00000
     22       8.7288      0.00000
     23       9.1666      0.00000
     24       9.1975      0.00000

 k-point   243 :      -0.4286   -0.4286    0.4286
  band No.  band energies     occupation 
      1     -42.9416      2.00000
      2     -42.9290      2.00000
      3     -20.6985      2.00000
      4     -20.6007      2.00000
      5     -20.2147      2.00000
      6     -18.6513      2.00000
      7      -5.9372      2.00000
      8      -5.6666      2.00000
      9      -5.6666      2.00000
     10      -2.8284      2.00000
     11      -2.8284      2.00000
     12      -2.4169      2.00000
     13      -2.2419      2.00000
     14      -1.6634      2.00000
     15      -1.5016      2.00000
     16      -1.5016      2.00000
     17      -1.3919      2.00000
     18      -1.3919      2.00000
     19       6.4445      0.00000
     20       7.3982      0.00000
     21       7.9268      0.00000
     22       9.0882      0.00000
     23       9.1487      0.00000
     24       9.1487      0.00000

 k-point   244 :       0.5000    0.5000    0.5000
  band No.  band energies     occupation 
      1     -42.9415      2.00000
      2     -42.9291      2.00000
      3     -20.6873      2.00000
      4     -20.6111      2.00000
      5     -20.2147      2.00000
      6     -18.6532      2.00000
      7      -5.9170      2.00000
      8      -5.6706      2.00000
      9      -5.6706      2.00000
     10      -2.8198      2.00000
     11      -2.8198      2.00000
     12      -2.3730      2.00000
     13      -2.3210      2.00000
     14      -1.6601      2.00000
     15      -1.4775      2.00000
     16      -1.4775      2.00000
     17      -1.4167      2.00000
     18      -1.4167      2.00000
     19       6.4236      0.00000
     20       7.4298      0.00000
     21       8.3374      0.00000
     22       8.6199      0.00000
     23       9.1272      0.00000
     24       9.1272      0.00000


--------------------------------------------------------------------------------------------------------


 soft charge-density along one line, spin component           1
         0         1         2         3         4         5         6         7         8         9
 total charge-density along one line
 
 pseudopotential strength for first ion, spin component:           1
 17.561  -4.603   0.000   0.000  -0.000  -0.000  -0.000   0.000
 -4.603   1.211  -0.000  -0.000   0.000   0.000   0.000  -0.000
  0.000  -0.000   1.980  -0.000  -0.000  -2.355   0.000   0.000
  0.000  -0.000  -0.000   1.988  -0.000   0.000  -2.365   0.000
 -0.000   0.000  -0.000  -0.000   1.980   0.000   0.000  -2.355
 -0.000   0.000  -2.355   0.000   0.000   2.744  -0.000  -0.000
 -0.000   0.000   0.000  -2.365   0.000  -0.000   2.759  -0.000
  0.000  -0.000   0.000   0.000  -2.355  -0.000  -0.000   2.744
 -0.000   0.000  -0.000  -0.000   0.000   0.000   0.000  -0.000
 -0.000   0.000   0.000   0.000  -0.000  -0.000  -0.000   0.000
  0.005  -0.001  -0.000   0.000   0.000   0.000  -0.000  -0.000
 -0.000   0.000  -0.000  -0.000   0.000   0.000   0.000  -0.000
  0.000  -0.000  -0.000  -0.000  -0.000   0.000   0.000   0.000
 total augmentation occupancy for first ion, spin component:           1
  2.011   0.012   0.000   0.000   0.000   0.000   0.000   0.000   0.000  -0.000   0.008   0.000   0.000
  0.012   0.231   0.000   0.000   0.000   0.000   0.000   0.000   0.000   0.000  -0.017   0.000   0.000
  0.000   0.000   2.012   0.000   0.000   0.005  -0.000   0.000   0.000   0.000   0.000   0.000   0.000
  0.000   0.000   0.000   2.040   0.000   0.000   0.024   0.000   0.000   0.000   0.000   0.000   0.000
  0.000   0.000   0.000   0.000   2.012   0.000   0.000   0.005   0.000   0.000   0.000   0.000   0.000
  0.000   0.000   0.005   0.000   0.000   0.023   0.000   0.000   0.000   0.000   0.000   0.000   0.000
  0.000   0.000   0.000   0.024   0.000  -0.000   0.014   0.000   0.000   0.000   0.000   0.000   0.000
  0.000   0.000   0.000   0.000   0.005   0.000   0.000   0.023   0.000   0.000   0.000   0.000   0.000
  0.000   0.000   0.000   0.000   0.000   0.000   0.000   0.000   0.024   0.000   0.000   0.000   0.000
  0.000   0.000   0.000   0.000   0.000   0.000   0.000   0.000   0.000   0.008  -0.000   0.000   0.000
  0.008  -0.017   0.000   0.000   0.000   0.000   0.000   0.000   0.000   0.000   0.013   0.000   0.000
  0.000   0.000   0.000   0.000   0.000   0.000   0.000   0.000   0.000   0.000   0.000   0.008   0.000
  0.000   0.000   0.000   0.000   0.000   0.000   0.000   0.000  -0.000  -0.000   0.000   0.000   0.006


------------------------ aborting loop because EDIFF is reached ----------------------------------------


 


 total charge     
 
# of ion     s       p       d       tot
----------------------------------------
  1        1.845   4.726   0.045   6.616
  2        1.729   4.361   0.000   6.091
  3        1.733   4.378   0.000   6.110
  4        1.729   4.361   0.000   6.091
  5        2.010   0.038   0.000   2.048
  6        2.010   0.038   0.000   2.048
------------------------------------------------
tot       11.056  17.902   0.045  29.003
 
    CHARGE:  cpu time    0.4249: real time    0.4273
    FORLOC:  cpu time    0.0030: real time    0.0032
    FORNL :  cpu time    0.7969: real time    0.8001
    STRESS:  cpu time    3.0345: real time    3.0457
    FORCOR:  cpu time    0.0290: real time    0.0290
    FORHAR:  cpu time    0.0090: real time    0.0093
    MIXING:  cpu time    0.0020: real time    0.0015
    OFIELD:  cpu time    0.0000: real time    0.0002

  FORCE on cell =-STRESS in cart. coord.  units (eV):
  Direction    XX          YY          ZZ          XY          YZ          ZX
  --------------------------------------------------------------------------------------
  Alpha Z   123.79994   123.79994   123.79994
  Ewald    -623.19990  -623.19990  -718.24102     0.00000    -0.00000    -0.00000
  Hartree   304.27650   304.27650   223.11234    -0.00000    -0.00000    -0.00000
  E(xc)    -182.72910  -182.72910  -182.92768     0.00000    -0.00000    -0.00000
  Local    -248.93359  -248.93359   -68.86178     0.00001     0.00000     0.00000
  n-local  -138.34338  -138.22423  -138.32895     0.02797     0.03101     0.03580
  augment    77.14076    77.14076    77.09154    -0.00001     0.00000     0.00000
  Kinetic   687.26803   688.79167   684.42773    -0.98952    -0.09808    -0.11376
  Fock        0.00000     0.00000     0.00000     0.00000     0.00000     0.00000
  -------------------------------------------------------------------------------------
  Total       0.10066     0.10066     0.07213     0.00000    -0.00000     0.00000
  in kB       1.91016     1.91016     1.36873     0.00000    -0.00000     0.00000
  external pressure =        1.73 kB  Pullay stress =        0.00 kB


 VOLUME and BASIS-vectors are now :
 -----------------------------------------------------------------------------
  energy-cutoff  :      520.00
  volume of cell :       84.43
      direct lattice vectors                 reciprocal lattice vectors
    -2.029148202  2.029148202  5.126523248     0.000000000  0.246408813  0.097531987
     2.029148202 -2.029148202  5.126523248     0.246408813  0.000000000  0.097531987
     2.029148202  2.029148202 -5.126523248     0.246408813  0.246408813  0.000000000

  length of vectors
     5.875042593  5.875042593  5.875042593     0.265009041  0.265009041  0.348474685


 FORCES acting on ions
    electron-ion (+dipol)            ewald-force                    non-local-force                 convergence-correction
 -----------------------------------------------------------------------------------------------
   0.304E-14 0.127E-14 -.105E-13   0.427E-15 0.838E-14 -.355E-14   -.331E-23 0.000E+00 0.000E+00   -.386E-14 0.183E-13 0.148E-13
   -.930E-08 0.930E-08 0.856E-13   -.115E-15 -.253E-14 0.107E-13   -.585E-17 -.152E-17 -.412E-17   -.784E-07 0.784E-07 0.691E-13
   0.734E-12 -.960E-12 0.177E-11   -.116E-14 -.517E-14 0.711E-14   0.000E+00 0.000E+00 0.000E+00   0.237E-14 -.321E-13 0.471E-13
   0.930E-08 -.931E-08 0.107E-11   0.175E-14 -.289E-14 0.000E+00   -.607E-17 -.217E-17 0.434E-18   0.784E-07 -.784E-07 -.235E-13
   -.726E-06 -.726E-06 0.471E+00   0.779E-15 -.307E-14 0.220E+00   -.175E-17 -.136E-19 -.689E+00   -.148E-05 -.148E-05 -.147E-02
   0.726E-06 0.726E-06 -.471E+00   -.162E-14 0.485E-14 -.220E+00   -.840E-18 0.263E-17 0.689E+00   0.148E-05 0.148E-05 0.147E-02
 -----------------------------------------------------------------------------------------------
   0.203E-11 -.169E-11 0.165E-12   0.592E-16 -.437E-15 0.000E+00   -.145E-16 -.107E-17 0.000E+00   -.584E-13 -.783E-13 0.109E-12
 
 
 POSITION                                       TOTAL-FORCE (eV/Angst)
 -----------------------------------------------------------------------------------
      0.00000      0.00000      0.00000         0.000000      0.000000      0.000000
     -0.00000      2.02915      2.56326         0.000000      0.000000      0.000000
      0.00000      0.00000      5.12652         0.000000      0.000000     -0.000000
      2.02915     -0.00000      2.56326         0.000000      0.000000     -0.000000
      0.00000      0.00000      3.17139        -0.000000     -0.000000      0.000110
      0.00000      0.00000      7.08166         0.000000      0.000000     -0.000110
 -----------------------------------------------------------------------------------
    total drift:                                0.000000     -0.000000      0.000000


--------------------------------------------------------------------------------------------------------



  FREE ENERGIE OF THE ION-ELECTRON SYSTEM (eV)
  ---------------------------------------------------
  free  energy   TOTEN  =       -26.88918354 eV

  energy  without entropy=      -26.88918354  energy(sigma->0) =      -26.88918354
 


--------------------------------------------------------------------------------------------------------


    POTLOK:  cpu time    0.1070: real time    0.1082


--------------------------------------------------------------------------------------------------------


     LOOP+:  cpu time  125.8519: real time  126.5974
    4ORBIT:  cpu time    0.0000: real time    0.0000
 


 total charge     
 
# of ion     s       p       d       tot
----------------------------------------
  1        1.845   4.726   0.045   6.616
  2        1.729   4.361   0.000   6.091
  3        1.733   4.378   0.000   6.110
  4        1.729   4.361   0.000   6.091
  5        2.010   0.038   0.000   2.048
  6        2.010   0.038   0.000   2.048
------------------------------------------------
tot       11.056  17.902   0.045  29.003
 

 total amount of memory used by VASP on root node    93491. kBytes
========================================================================

   base      :      30000. kBytes
   nonl-proj :      44362. kBytes
   fftplans  :       6233. kBytes
   grid      :       3511. kBytes
   one-center:         16. kBytes
   wavefun   :       9369. kBytes
 
  
  
 General timing and accounting informations for this job:
 ========================================================
  
                  Total CPU time used (sec):      149.871
                            User time (sec):      114.042
                          System time (sec):       35.830
                         Elapsed time (sec):      151.355
  
                   Maximum memory used (kb):      191688.
                   Average memory used (kb):           0.
  
                          Minor page faults:      6354395
                          Major page faults:            0
                 Voluntary context switches:         2294
