 vasp.5.4.1 24Jun15 (build Nov 23 2015 09:58:10) complex                        
  
 executed on             LinuxIFC date 2020.06.19  12:50:21
 running on   24 total cores
 distrk:  each k-point on   24 cores,    1 groups
 distr:  one band on NCORES_PER_BAND=   4 cores,    6 groups


--------------------------------------------------------------------------------------------------------


 INCAR:
 POTCAR:    PAW_PBE F 08Apr2002                   
 POTCAR:    PAW_PBE Ti_sv 26Sep2005               
 POTCAR:    PAW_PBE F 08Apr2002                   
   VRHFIN =F: s2p5                                                              
   LEXCH  = PE                                                                  
   EATOM  =   659.6475 eV,   48.4827 Ry                                         
                                                                                
   TITEL  = PAW_PBE F 08Apr2002                                                 
   LULTRA =        F    use ultrasoft PP ?                                      
   IUNSCR =        1    unscreen: 0-lin 1-nonlin 2-no                           
   RPACOR =    1.200    partial core radius                                     
   POMASS =   18.998; ZVAL   =    7.000    mass and valenz                      
   RCORE  =    1.520    outmost cutoff radius                                   
   RWIGS  =    1.500; RWIGS  =    0.794    wigner-seitz radius (au A)           
   ENMAX  =  400.000; ENMIN  =  300.000 eV                                      
   ICORE  =        2    local potential                                         
   LCOR   =        T    correct aug charges                                     
   LPAW   =        T    paw PP                                                  
   EAUG   =  613.614                                                            
   RMAX   =    1.555    core radius for proj-oper                               
   RAUG   =    1.300    factor for augmentation sphere                          
   RDEP   =    1.539    radius for radial grids                                 
   RDEPT  =    1.299    core radius for aug-charge                              
                                                                                
   Atomic configuration                                                         
    4 entries                                                                   
     n  l   j            E        occ.                                          
     1  0  0.50      -663.3661   2.0000                                         
     2  0  0.50       -29.8995   2.0000                                         
     2  1  0.50       -11.1114   5.0000                                         
     3  2  1.50       -10.8847   0.0000                                         
   Description                                                                  
     l       E           TYP  RCUT    TYP  RCUT                                 
     0    -29.8995018     23  1.200                                             
     0     -9.5240782     23  1.200                                             
     1    -11.1113914     23  1.520                                             
     1      1.3605826     23  1.520                                             
     2    -10.8846608      7  1.500                                             
  local pseudopotential read in
  partial core-charges read in
  partial kinetic energy density read in
  atomic valenz-charges read in
  non local Contribution for L=           0  read in
    real space projection operators read in
  non local Contribution for L=           0  read in
    real space projection operators read in
  non local Contribution for L=           1  read in
    real space projection operators read in
  non local Contribution for L=           1  read in
    real space projection operators read in
    PAW grid and wavefunctions read in
 
   number of l-projection  operators is LMAX  =           4
   number of lm-projection operators is LMMAX =           8
 
 POTCAR:    PAW_PBE Ti_sv 26Sep2005               
   VRHFIN =Ti: 3p4s3d                                                           
   LEXCH  = PE                                                                  
   EATOM  =  1588.0892 eV,  116.7213 Ry                                         
                                                                                
   TITEL  = PAW_PBE Ti_sv 26Sep2005                                             
   LULTRA =        F    use ultrasoft PP ?                                      
   IUNSCR =        1    unscreen: 0-lin 1-nonlin 2-no                           
   RPACOR =    2.000    partial core radius                                     
   POMASS =   47.880; ZVAL   =   12.000    mass and valenz                      
   RCORE  =    2.300    outmost cutoff radius                                   
   RWIGS  =    2.300; RWIGS  =    1.217    wigner-seitz radius (au A)           
   ENMAX  =  274.610; ENMIN  =  205.957 eV                                      
   ICORE  =        3    local potential                                         
   LCOR   =        T    correct aug charges                                     
   LPAW   =        T    paw PP                                                  
   EAUG   =  482.848                                                            
   RMAX   =    2.348    core radius for proj-oper                               
   RAUG   =    1.300    factor for augmentation sphere                          
   RDEP   =    2.381    radius for radial grids                                 
   RDEPT  =    1.930    core radius for aug-charge                              
                                                                                
   Atomic configuration                                                         
    8 entries                                                                   
     n  l   j            E        occ.                                          
     1  0  0.50     -4865.3608   2.0000                                         
     2  0  0.50      -533.1368   2.0000                                         
     2  1  1.50      -440.5031   6.0000                                         
     3  0  0.50       -59.3186   2.0000                                         
     4  0  0.50        -3.7291   1.0000                                         
     3  1  1.50       -35.7012   6.0000                                         
     3  2  2.50        -1.9157   3.0000                                         
     4  3  2.50        -1.3606   0.0000                                         
   Description                                                                  
     l       E           TYP  RCUT    TYP  RCUT                                 
     0    -59.3185931     23  1.800                                             
     0     -3.7290822     23  2.300                                             
     1    -35.7012045     23  2.300                                             
     1     -1.3605826     23  2.300                                             
     2     -1.9156920     23  2.300                                             
     2     -0.0236318     23  2.300                                             
     3     -1.3605826     23  2.300                                             
  local pseudopotential read in
  partial core-charges read in
  partial kinetic energy density read in
  atomic valenz-charges read in
  non local Contribution for L=           0  read in
    real space projection operators read in
  non local Contribution for L=           0  read in
    real space projection operators read in
  non local Contribution for L=           1  read in
    real space projection operators read in
  non local Contribution for L=           1  read in
    real space projection operators read in
  non local Contribution for L=           2  read in
    real space projection operators read in
  non local Contribution for L=           2  read in
    real space projection operators read in
    PAW grid and wavefunctions read in
 
   number of l-projection  operators is LMAX  =           6
   number of lm-projection operators is LMMAX =          18
 
  PAW_PBE F 08Apr2002                   :
 energy of atom  1       EATOM= -659.6475
 kinetic energy error for atom=    0.0323 (will be added to EATOM!!)
  PAW_PBE Ti_sv 26Sep2005               :
 energy of atom  2       EATOM=-1588.0892
 kinetic energy error for atom=    0.0042 (will be added to EATOM!!)
 
 
 POSCAR: F3 Ti1                                  
  positions in direct lattice
  velocities in cartesian coordinates
 exchange correlation table for  LEXCH =        8
   RHO(1)=    0.500       N(1)  =     2000
   RHO(2)=  100.500       N(2)  =     4000
 


--------------------------------------------------------------------------------------------------------


 ion  position               nearest neighbor table
   1  0.000  0.000  0.500-   4 2.00   4 2.00
   2  0.000  0.500  0.000-   4 2.00   4 2.00
   3  0.500  0.000  0.000-   4 2.00   4 2.00
   4  0.000  0.000  0.000-   1 2.00   2 2.00   3 2.00   1 2.00   2 2.00   3 2.00
 
  LATTYP: Found a simple cubic cell.
 ALAT       =     4.0024579413
  
  Lattice vectors:
  
 A1 = (   4.0024579413,   0.0000000000,   0.0000000000)
 A2 = (   0.0000000000,   4.0024579413,   0.0000000000)
 A3 = (   0.0000000000,   0.0000000000,   4.0024579413)


Analysis of symmetry for initial positions (statically):
=====================================================================
 Subroutine PRICEL returns:
 Original cell was already a primitive cell.
 

 Routine SETGRP: Setting up the symmetry group for a 
 simple cubic supercell.


 Subroutine GETGRP returns: Found 48 space group operations
 (whereof 48 operations were pure point group operations)
 out of a pool of 48 trial point group operations.


The static configuration has the point symmetry O_h .


Analysis of symmetry for dynamics (positions and initial velocities):
=====================================================================
 Subroutine PRICEL returns:
 Original cell was already a primitive cell.
 

 Routine SETGRP: Setting up the symmetry group for a 
 simple cubic supercell.


 Subroutine GETGRP returns: Found 48 space group operations
 (whereof 48 operations were pure point group operations)
 out of a pool of 48 trial point group operations.


The dynamic configuration has the point symmetry O_h .


Analysis of magnetic symmetry:
=====================================================================
 Subroutine PRICEL returns:
 Original cell was already a primitive cell.
 

 Subroutine MAGSYM returns: Found 48 space group operations
 (whereof 48 operations were pure point group operations)
 out of a pool of 48 trial space group operations
 (whereof 48 operations were pure point group operations)
 and found also     1 'primitive' translations


The magnetic configuration has the point symmetry O_h .
 
 
 KPOINTS: K-Mesh                                  

Automatic generation of k-mesh.
Space group operators:
 irot       det(A)        alpha          n_x          n_y          n_z        tau_x        tau_y        tau_z
    1     1.000000     0.000000     1.000000     0.000000     0.000000     0.000000     0.000000     0.000000
    2    -1.000000     0.000000     1.000000     0.000000     0.000000     0.000000     0.000000     0.000000
    3     1.000000   120.000000    -0.577350    -0.577350    -0.577350     0.000000     0.000000     0.000000
    4    -1.000000   120.000000    -0.577350    -0.577350    -0.577350     0.000000     0.000000     0.000000
    5     1.000000   120.000000     0.577350     0.577350     0.577350     0.000000     0.000000     0.000000
    6    -1.000000   120.000000     0.577350     0.577350     0.577350     0.000000     0.000000     0.000000
    7     1.000000    90.000000     0.000000     0.000000    -1.000000     0.000000     0.000000     0.000000
    8    -1.000000    90.000000     0.000000     0.000000    -1.000000     0.000000     0.000000     0.000000
    9     1.000000   180.000000     0.000000     0.707107     0.707107     0.000000     0.000000     0.000000
   10    -1.000000   180.000000     0.000000     0.707107     0.707107     0.000000     0.000000     0.000000
   11     1.000000    90.000000     0.000000     1.000000     0.000000     0.000000     0.000000     0.000000
   12    -1.000000    90.000000     0.000000     1.000000     0.000000     0.000000     0.000000     0.000000
   13     1.000000   180.000000     0.000000     0.000000     1.000000     0.000000     0.000000     0.000000
   14    -1.000000   180.000000     0.000000     0.000000     1.000000     0.000000     0.000000     0.000000
   15     1.000000   120.000000    -0.577350     0.577350     0.577350     0.000000     0.000000     0.000000
   16    -1.000000   120.000000    -0.577350     0.577350     0.577350     0.000000     0.000000     0.000000
   17     1.000000   120.000000    -0.577350     0.577350    -0.577350     0.000000     0.000000     0.000000
   18    -1.000000   120.000000    -0.577350     0.577350    -0.577350     0.000000     0.000000     0.000000
   19     1.000000    90.000000     0.000000     0.000000     1.000000     0.000000     0.000000     0.000000
   20    -1.000000    90.000000     0.000000     0.000000     1.000000     0.000000     0.000000     0.000000
   21     1.000000    90.000000    -1.000000     0.000000     0.000000     0.000000     0.000000     0.000000
   22    -1.000000    90.000000    -1.000000     0.000000     0.000000     0.000000     0.000000     0.000000
   23     1.000000   180.000000     0.707107     0.000000     0.707107     0.000000     0.000000     0.000000
   24    -1.000000   180.000000     0.707107     0.000000     0.707107     0.000000     0.000000     0.000000
   25     1.000000   120.000000     0.577350    -0.577350     0.577350     0.000000     0.000000     0.000000
   26    -1.000000   120.000000     0.577350    -0.577350     0.577350     0.000000     0.000000     0.000000
   27     1.000000   120.000000    -0.577350    -0.577350     0.577350     0.000000     0.000000     0.000000
   28    -1.000000   120.000000    -0.577350    -0.577350     0.577350     0.000000     0.000000     0.000000
   29     1.000000   180.000000     1.000000     0.000000     0.000000     0.000000     0.000000     0.000000
   30    -1.000000   180.000000     1.000000     0.000000     0.000000     0.000000     0.000000     0.000000
   31     1.000000    90.000000     0.000000    -1.000000     0.000000     0.000000     0.000000     0.000000
   32    -1.000000    90.000000     0.000000    -1.000000     0.000000     0.000000     0.000000     0.000000
   33     1.000000   180.000000     0.707107     0.707107     0.000000     0.000000     0.000000     0.000000
   34    -1.000000   180.000000     0.707107     0.707107     0.000000     0.000000     0.000000     0.000000
   35     1.000000    90.000000     1.000000     0.000000     0.000000     0.000000     0.000000     0.000000
   36    -1.000000    90.000000     1.000000     0.000000     0.000000     0.000000     0.000000     0.000000
   37     1.000000   120.000000     0.577350    -0.577350    -0.577350     0.000000     0.000000     0.000000
   38    -1.000000   120.000000     0.577350    -0.577350    -0.577350     0.000000     0.000000     0.000000
   39     1.000000   180.000000     0.000000     1.000000     0.000000     0.000000     0.000000     0.000000
   40    -1.000000   180.000000     0.000000     1.000000     0.000000     0.000000     0.000000     0.000000
   41     1.000000   120.000000     0.577350     0.577350    -0.577350     0.000000     0.000000     0.000000
   42    -1.000000   120.000000     0.577350     0.577350    -0.577350     0.000000     0.000000     0.000000
   43     1.000000   180.000000     0.000000    -0.707107     0.707107     0.000000     0.000000     0.000000
   44    -1.000000   180.000000     0.000000    -0.707107     0.707107     0.000000     0.000000     0.000000
   45     1.000000   180.000000     0.707107    -0.707107     0.000000     0.000000     0.000000     0.000000
   46    -1.000000   180.000000     0.707107    -0.707107     0.000000     0.000000     0.000000     0.000000
   47     1.000000   180.000000     0.707107     0.000000    -0.707107     0.000000     0.000000     0.000000
   48    -1.000000   180.000000     0.707107     0.000000    -0.707107     0.000000     0.000000     0.000000
 
 Subroutine IBZKPT returns following result:
 ===========================================
 
 Found     84 irreducible k-points:
 
 Following reciprocal coordinates:
            Coordinates               Weight
  0.000000  0.000000  0.000000      1.000000
  0.083333  0.000000  0.000000      6.000000
  0.166667  0.000000  0.000000      6.000000
  0.250000  0.000000  0.000000      6.000000
  0.333333  0.000000  0.000000      6.000000
  0.416667  0.000000  0.000000      6.000000
  0.500000  0.000000  0.000000      3.000000
  0.083333  0.083333  0.000000     12.000000
  0.166667  0.083333  0.000000     24.000000
  0.250000  0.083333  0.000000     24.000000
  0.333333  0.083333  0.000000     24.000000
  0.416667  0.083333  0.000000     24.000000
  0.500000  0.083333  0.000000     12.000000
  0.166667  0.166667  0.000000     12.000000
  0.250000  0.166667  0.000000     24.000000
  0.333333  0.166667  0.000000     24.000000
  0.416667  0.166667  0.000000     24.000000
  0.500000  0.166667  0.000000     12.000000
  0.250000  0.250000  0.000000     12.000000
  0.333333  0.250000  0.000000     24.000000
  0.416667  0.250000  0.000000     24.000000
  0.500000  0.250000  0.000000     12.000000
  0.333333  0.333333  0.000000     12.000000
  0.416667  0.333333  0.000000     24.000000
  0.500000  0.333333  0.000000     12.000000
  0.416667  0.416667  0.000000     12.000000
  0.500000  0.416667  0.000000     12.000000
  0.500000  0.500000  0.000000      3.000000
  0.083333  0.083333  0.083333      8.000000
  0.166667  0.083333  0.083333     24.000000
  0.250000  0.083333  0.083333     24.000000
  0.333333  0.083333  0.083333     24.000000
  0.416667  0.083333  0.083333     24.000000
  0.500000  0.083333  0.083333     12.000000
  0.166667  0.166667  0.083333     24.000000
  0.250000  0.166667  0.083333     48.000000
  0.333333  0.166667  0.083333     48.000000
  0.416667  0.166667  0.083333     48.000000
  0.500000  0.166667  0.083333     24.000000
  0.250000  0.250000  0.083333     24.000000
  0.333333  0.250000  0.083333     48.000000
  0.416667  0.250000  0.083333     48.000000
  0.500000  0.250000  0.083333     24.000000
  0.333333  0.333333  0.083333     24.000000
  0.416667  0.333333  0.083333     48.000000
  0.500000  0.333333  0.083333     24.000000
  0.416667  0.416667  0.083333     24.000000
  0.500000  0.416667  0.083333     24.000000
  0.500000  0.500000  0.083333      6.000000
  0.166667  0.166667  0.166667      8.000000
  0.250000  0.166667  0.166667     24.000000
  0.333333  0.166667  0.166667     24.000000
  0.416667  0.166667  0.166667     24.000000
  0.500000  0.166667  0.166667     12.000000
  0.250000  0.250000  0.166667     24.000000
  0.333333  0.250000  0.166667     48.000000
  0.416667  0.250000  0.166667     48.000000
  0.500000  0.250000  0.166667     24.000000
  0.333333  0.333333  0.166667     24.000000
  0.416667  0.333333  0.166667     48.000000
  0.500000  0.333333  0.166667     24.000000
  0.416667  0.416667  0.166667     24.000000
  0.500000  0.416667  0.166667     24.000000
  0.500000  0.500000  0.166667      6.000000
  0.250000  0.250000  0.250000      8.000000
  0.333333  0.250000  0.250000     24.000000
  0.416667  0.250000  0.250000     24.000000
  0.500000  0.250000  0.250000     12.000000
  0.333333  0.333333  0.250000     24.000000
  0.416667  0.333333  0.250000     48.000000
  0.500000  0.333333  0.250000     24.000000
  0.416667  0.416667  0.250000     24.000000
  0.500000  0.416667  0.250000     24.000000
  0.500000  0.500000  0.250000      6.000000
  0.333333  0.333333  0.333333      8.000000
  0.416667  0.333333  0.333333     24.000000
  0.500000  0.333333  0.333333     12.000000
  0.416667  0.416667  0.333333     24.000000
  0.500000  0.416667  0.333333     24.000000
  0.500000  0.500000  0.333333      6.000000
  0.416667  0.416667  0.416667      8.000000
  0.500000  0.416667  0.416667     12.000000
  0.500000  0.500000  0.416667      6.000000
  0.500000  0.500000  0.500000      1.000000
 
 Following cartesian coordinates:
            Coordinates               Weight
  0.000000  0.000000  0.000000      1.000000
  0.020821  0.000000  0.000000      6.000000
  0.041641  0.000000  0.000000      6.000000
  0.062462  0.000000  0.000000      6.000000
  0.083282  0.000000  0.000000      6.000000
  0.104103  0.000000  0.000000      6.000000
  0.124923  0.000000  0.000000      3.000000
  0.020821  0.020821  0.000000     12.000000
  0.041641  0.020821  0.000000     24.000000
  0.062462  0.020821  0.000000     24.000000
  0.083282  0.020821  0.000000     24.000000
  0.104103  0.020821  0.000000     24.000000
  0.124923  0.020821  0.000000     12.000000
  0.041641  0.041641  0.000000     12.000000
  0.062462  0.041641  0.000000     24.000000
  0.083282  0.041641  0.000000     24.000000
  0.104103  0.041641  0.000000     24.000000
  0.124923  0.041641  0.000000     12.000000
  0.062462  0.062462  0.000000     12.000000
  0.083282  0.062462  0.000000     24.000000
  0.104103  0.062462  0.000000     24.000000
  0.124923  0.062462  0.000000     12.000000
  0.083282  0.083282  0.000000     12.000000
  0.104103  0.083282  0.000000     24.000000
  0.124923  0.083282  0.000000     12.000000
  0.104103  0.104103  0.000000     12.000000
  0.124923  0.104103  0.000000     12.000000
  0.124923  0.124923  0.000000      3.000000
  0.020821  0.020821  0.020821      8.000000
  0.041641  0.020821  0.020821     24.000000
  0.062462  0.020821  0.020821     24.000000
  0.083282  0.020821  0.020821     24.000000
  0.104103  0.020821  0.020821     24.000000
  0.124923  0.020821  0.020821     12.000000
  0.041641  0.041641  0.020821     24.000000
  0.062462  0.041641  0.020821     48.000000
  0.083282  0.041641  0.020821     48.000000
  0.104103  0.041641  0.020821     48.000000
  0.124923  0.041641  0.020821     24.000000
  0.062462  0.062462  0.020821     24.000000
  0.083282  0.062462  0.020821     48.000000
  0.104103  0.062462  0.020821     48.000000
  0.124923  0.062462  0.020821     24.000000
  0.083282  0.083282  0.020821     24.000000
  0.104103  0.083282  0.020821     48.000000
  0.124923  0.083282  0.020821     24.000000
  0.104103  0.104103  0.020821     24.000000
  0.124923  0.104103  0.020821     24.000000
  0.124923  0.124923  0.020821      6.000000
  0.041641  0.041641  0.041641      8.000000
  0.062462  0.041641  0.041641     24.000000
  0.083282  0.041641  0.041641     24.000000
  0.104103  0.041641  0.041641     24.000000
  0.124923  0.041641  0.041641     12.000000
  0.062462  0.062462  0.041641     24.000000
  0.083282  0.062462  0.041641     48.000000
  0.104103  0.062462  0.041641     48.000000
  0.124923  0.062462  0.041641     24.000000
  0.083282  0.083282  0.041641     24.000000
  0.104103  0.083282  0.041641     48.000000
  0.124923  0.083282  0.041641     24.000000
  0.104103  0.104103  0.041641     24.000000
  0.124923  0.104103  0.041641     24.000000
  0.124923  0.124923  0.041641      6.000000
  0.062462  0.062462  0.062462      8.000000
  0.083282  0.062462  0.062462     24.000000
  0.104103  0.062462  0.062462     24.000000
  0.124923  0.062462  0.062462     12.000000
  0.083282  0.083282  0.062462     24.000000
  0.104103  0.083282  0.062462     48.000000
  0.124923  0.083282  0.062462     24.000000
  0.104103  0.104103  0.062462     24.000000
  0.124923  0.104103  0.062462     24.000000
  0.124923  0.124923  0.062462      6.000000
  0.083282  0.083282  0.083282      8.000000
  0.104103  0.083282  0.083282     24.000000
  0.124923  0.083282  0.083282     12.000000
  0.104103  0.104103  0.083282     24.000000
  0.124923  0.104103  0.083282     24.000000
  0.124923  0.124923  0.083282      6.000000
  0.104103  0.104103  0.104103      8.000000
  0.124923  0.104103  0.104103     12.000000
  0.124923  0.124923  0.104103      6.000000
  0.124923  0.124923  0.124923      1.000000
 


--------------------------------------------------------------------------------------------------------




 Dimension of arrays:
   k-points           NKPTS =     84   k-points in BZ     NKDIM =     84   number of bands    NBANDS=     24
   number of dos      NEDOS =    301   number of ions     NIONS =      4
   non local maximal  LDIM  =      6   non local SUM 2l+1 LMDIM =     18
   total plane-waves  NPLWV =  27000
   max r-space proj   IRMAX =      1   max aug-charges    IRDMAX= 130975
   dimension x,y,z NGX =    30 NGY =   30 NGZ =   30
   dimension x,y,z NGXF=    60 NGYF=   60 NGZF=   60
   support grid    NGXF=   120 NGYF=  120 NGZF=  120
   ions per type =               3   1
 NGX,Y,Z   is equivalent  to a cutoff of  12.46, 12.46, 12.46 a.u.
 NGXF,Y,Z  is equivalent  to a cutoff of  24.92, 24.92, 24.92 a.u.


 I would recommend the setting:
   dimension x,y,z NGX =    30 NGY =   30 NGZ =   30
 SYSTEM =  matgen-scf                              
 POSCAR =  F3 Ti1                                  

 Startparameter for this run:
   NWRITE =      2    write-flag & timer
   PREC   = accura    normal or accurate (medium, high low for compatibility)
   ISTART =      0    job   : 0-new  1-cont  2-samecut
   ICHARG =      2    charge: 1-file 2-atom 10-const
   ISPIN  =      2    spin polarized calculation?
   LNONCOLLINEAR =      F non collinear calculations
   LSORBIT =      F    spin-orbit coupling
   INIWAV =      1    electr: 0-lowe 1-rand  2-diag
   LASPH  =      F    aspherical Exc in radial PAW
   METAGGA=      F    non-selfconsistent MetaGGA calc.

 Electronic Relaxation 1
   ENCUT  =  520.0 eV  38.22 Ry    6.18 a.u.   7.44  7.44  7.44*2*pi/ulx,y,z
   ENINI  =  520.0     initial cutoff
   ENAUG  =  613.6 eV  augmentation charge cutoff
   NELM   =    140;   NELMIN=  6; NELMDL= -5     # of ELM steps 
   EDIFF  = 0.1E-03   stopping-criterion for ELM
   LREAL  =      F    real-space projection
   NLSPLINE    = F    spline interpolate recip. space projectors
   LCOMPAT=      F    compatible to vasp.4.4
   GGA_COMPAT  = T    GGA compatible to vasp.4.4-vasp.4.6
   LMAXPAW     = -100 max onsite density
   LMAXMIX     =    4 max onsite mixed and CHGCAR
   VOSKOWN=      0    Vosko Wilk Nusair interpolation
   ROPT   =    0.00000   0.00000
 Ionic relaxation
   EDIFFG = -.1E-01   stopping-criterion for IOM
   NSW    =      0    number of steps for IOM
   NBLOCK =      1;   KBLOCK =      1    inner block; outer block 
   IBRION =     -1    ionic relax: 0-MD 1-quasi-New 2-CG
   NFREE  =      0    steps in history (QN), initial steepest desc. (CG)
   ISIF   =      2    stress and relaxation
   IWAVPR =     10    prediction:  0-non 1-charg 2-wave 3-comb
   ISYM   =      2    0-nonsym 1-usesym 2-fastsym
   LCORR  =      T    Harris-Foulkes like correction to forces

   POTIM  = 0.0500    time-step for ionic-motion
   TEIN   =    0.0    initial temperature
   TEBEG  =    0.0;   TEEND  =   0.0 temperature during run
   SMASS  =  -3.00    Nose mass-parameter (am)
   estimated Nose-frequenzy (Omega)   =  0.10E-29 period in steps =****** mass=  -0.366E-27a.u.
   SCALEE = 1.0000    scale energy and forces
   NPACO  =    256;   APACO  = 16.0  distance and # of slots for P.C.
   PSTRESS=    0.0 pullay stress

  Mass of Ions in am
   POMASS =  19.00 47.88
  Ionic Valenz
   ZVAL   =   7.00 12.00
  Atomic Wigner-Seitz radii
   RWIGS  =  -1.00 -1.00
  virtual crystal weights 
   VCA    =   1.00  1.00
   NELECT =      33.0000    total number of electrons
   NUPDOWN=      -1.0000    fix difference up-down

 DOS related values:
   EMIN   =  10.00;   EMAX   =-10.00  energy-range for DOS
   EFERMI =   0.00
   ISMEAR =     0;   SIGMA  =   0.05  broadening in eV -4-tet -1-fermi 0-gaus

 Electronic relaxation 2 (details)
   IALGO  =     38    algorithm
   LDIAG  =      T    sub-space diagonalisation (order eigenvalues)
   LSUBROT=      F    optimize rotation matrix (better conditioning)
   TURBO    =      0    0=normal 1=particle mesh
   IRESTART =      0    0=no restart 2=restart with 2 vectors
   NREBOOT  =      0    no. of reboots
   NMIN     =      0    reboot dimension
   EREF     =   0.00    reference energy to select bands
   IMIX   =      4    mixing-type and parameters
     AMIX     =   0.10;   BMIX     =  1.20
     AMIX_MAG =   0.40;   BMIX_MAG =  1.20
     AMIN     =   0.10
     WC   =   100.;   INIMIX=   1;  MIXPRE=   1;  MAXMIX= -45

 Intra band minimization:
   WEIMIN = 0.0000     energy-eigenvalue tresh-hold
   EBREAK =  0.10E-05  absolut break condition
   DEPER  =   0.30     relativ break condition  

   TIME   =   0.40     timestep for ELM

  volume/ion in A,a.u.               =      16.03       108.17
  Fermi-wavevector in a.u.,A,eV,Ry     =   1.311956  2.479238 23.418747  1.721229
  Thomas-Fermi vector in A             =   2.442382
 
 Write flags
   LWAVE  =      F    write WAVECAR
   LCHARG =      T    write CHGCAR
   LVTOT  =      F    write LOCPOT, total local potential
   LVHAR  =      F    write LOCPOT, Hartree potential only
   LELF   =      F    write electronic localiz. function (ELF)
   LORBIT =     11    0 simple, 1 ext, 2 COOP (PROOUT)


 Dipole corrections
   LMONO  =      F    monopole corrections only (constant potential shift)
   LDIPOL =      F    correct potential (dipole corrections)
   IDIPOL =      0    1-x, 2-y, 3-z, 4-all directions 
   EPSILON=  1.0000000 bulk dielectric constant

 LDA+U is selected, type is set to LDAUTYPE =  2
   angular momentum for each species LDAUL =    -1    2
   U (eV)           for each species LDAUU =   0.0  4.4
   J (eV)           for each species LDAUJ =   0.0  0.0
 Exchange correlation treatment:
   GGA     =    --    GGA type
   LEXCH   =     8    internal setting for exchange type
   VOSKOWN=      0    Vosko Wilk Nusair interpolation
   LHFCALC =     F    Hartree Fock is set to
   LHFONE  =     F    Hartree Fock one center treatment
   AEXX    =    0.0000 exact exchange contribution

 Linear response parameters
   LEPSILON=     F    determine dielectric tensor
   LRPA    =     F    only Hartree local field effects (RPA)
   LNABLA  =     F    use nabla operator in PAW spheres
   LVEL    =     F    velocity operator in full k-point grid
   LINTERFAST=   F  fast interpolation
   KINTER  =     0    interpolate to denser k-point grid
   CSHIFT  =0.1000    complex shift for real part using Kramers Kronig
   OMEGAMAX=  -1.0    maximum frequency
   DEG_THRESHOLD= 0.2000000E-02 threshold for treating states as degnerate
   RTIME   =    0.100 relaxation time in fs

 Orbital magnetization related:
   ORBITALMAG=     F  switch on orbital magnetization
   LCHIMAG   =     F  perturbation theory with respect to B field
   DQ        =  0.001000  dq finite difference perturbation B field



--------------------------------------------------------------------------------------------------------


 Static calculation
 charge density and potential will be updated during run
 spin polarized calculation
 Variant of blocked Davidson
 Davidson routine will perform the subspace rotation
 perform sub-space diagonalisation
    after iterative eigenvector-optimisation
 modified Broyden-mixing scheme, WC =      100.0
 initial mixing is a Kerker type mixing with AMIX =  0.1000 and BMIX =      1.2000
 Hartree-type preconditioning will be used
 using additional bands            7
 reciprocal scheme for non local part
 use partial core corrections
 calculate Harris-corrections to forces 
   (improved forces if not selfconsistent)
 use gradient corrections 
 use of overlap-Matrix (Vanderbilt PP)
 Gauss-broadening in eV      SIGMA  =   0.05


--------------------------------------------------------------------------------------------------------


  energy-cutoff  :      520.00
  volume of cell :       64.12
      direct lattice vectors                 reciprocal lattice vectors
     4.002457941  0.000000000  0.000000000     0.249846473  0.000000000  0.000000000
     0.000000000  4.002457941  0.000000000     0.000000000  0.249846473  0.000000000
     0.000000000  0.000000000  4.002457941     0.000000000  0.000000000  0.249846473

  length of vectors
     4.002457941  4.002457941  4.002457941     0.249846473  0.249846473  0.249846473


 
 k-points in units of 2pi/SCALE and weight: K-Mesh                                  
   0.00000000  0.00000000  0.00000000       0.001
   0.02082054  0.00000000  0.00000000       0.003
   0.04164108  0.00000000  0.00000000       0.003
   0.06246162  0.00000000  0.00000000       0.003
   0.08328216  0.00000000  0.00000000       0.003
   0.10410270  0.00000000  0.00000000       0.003
   0.12492324  0.00000000  0.00000000       0.002
   0.02082054  0.02082054  0.00000000       0.007
   0.04164108  0.02082054  0.00000000       0.014
   0.06246162  0.02082054  0.00000000       0.014
   0.08328216  0.02082054  0.00000000       0.014
   0.10410270  0.02082054  0.00000000       0.014
   0.12492324  0.02082054  0.00000000       0.007
   0.04164108  0.04164108  0.00000000       0.007
   0.06246162  0.04164108  0.00000000       0.014
   0.08328216  0.04164108  0.00000000       0.014
   0.10410270  0.04164108  0.00000000       0.014
   0.12492324  0.04164108  0.00000000       0.007
   0.06246162  0.06246162  0.00000000       0.007
   0.08328216  0.06246162  0.00000000       0.014
   0.10410270  0.06246162  0.00000000       0.014
   0.12492324  0.06246162  0.00000000       0.007
   0.08328216  0.08328216  0.00000000       0.007
   0.10410270  0.08328216  0.00000000       0.014
   0.12492324  0.08328216  0.00000000       0.007
   0.10410270  0.10410270  0.00000000       0.007
   0.12492324  0.10410270  0.00000000       0.007
   0.12492324  0.12492324  0.00000000       0.002
   0.02082054  0.02082054  0.02082054       0.005
   0.04164108  0.02082054  0.02082054       0.014
   0.06246162  0.02082054  0.02082054       0.014
   0.08328216  0.02082054  0.02082054       0.014
   0.10410270  0.02082054  0.02082054       0.014
   0.12492324  0.02082054  0.02082054       0.007
   0.04164108  0.04164108  0.02082054       0.014
   0.06246162  0.04164108  0.02082054       0.028
   0.08328216  0.04164108  0.02082054       0.028
   0.10410270  0.04164108  0.02082054       0.028
   0.12492324  0.04164108  0.02082054       0.014
   0.06246162  0.06246162  0.02082054       0.014
   0.08328216  0.06246162  0.02082054       0.028
   0.10410270  0.06246162  0.02082054       0.028
   0.12492324  0.06246162  0.02082054       0.014
   0.08328216  0.08328216  0.02082054       0.014
   0.10410270  0.08328216  0.02082054       0.028
   0.12492324  0.08328216  0.02082054       0.014
   0.10410270  0.10410270  0.02082054       0.014
   0.12492324  0.10410270  0.02082054       0.014
   0.12492324  0.12492324  0.02082054       0.003
   0.04164108  0.04164108  0.04164108       0.005
   0.06246162  0.04164108  0.04164108       0.014
   0.08328216  0.04164108  0.04164108       0.014
   0.10410270  0.04164108  0.04164108       0.014
   0.12492324  0.04164108  0.04164108       0.007
   0.06246162  0.06246162  0.04164108       0.014
   0.08328216  0.06246162  0.04164108       0.028
   0.10410270  0.06246162  0.04164108       0.028
   0.12492324  0.06246162  0.04164108       0.014
   0.08328216  0.08328216  0.04164108       0.014
   0.10410270  0.08328216  0.04164108       0.028
   0.12492324  0.08328216  0.04164108       0.014
   0.10410270  0.10410270  0.04164108       0.014
   0.12492324  0.10410270  0.04164108       0.014
   0.12492324  0.12492324  0.04164108       0.003
   0.06246162  0.06246162  0.06246162       0.005
   0.08328216  0.06246162  0.06246162       0.014
   0.10410270  0.06246162  0.06246162       0.014
   0.12492324  0.06246162  0.06246162       0.007
   0.08328216  0.08328216  0.06246162       0.014
   0.10410270  0.08328216  0.06246162       0.028
   0.12492324  0.08328216  0.06246162       0.014
   0.10410270  0.10410270  0.06246162       0.014
   0.12492324  0.10410270  0.06246162       0.014
   0.12492324  0.12492324  0.06246162       0.003
   0.08328216  0.08328216  0.08328216       0.005
   0.10410270  0.08328216  0.08328216       0.014
   0.12492324  0.08328216  0.08328216       0.007
   0.10410270  0.10410270  0.08328216       0.014
   0.12492324  0.10410270  0.08328216       0.014
   0.12492324  0.12492324  0.08328216       0.003
   0.10410270  0.10410270  0.10410270       0.005
   0.12492324  0.10410270  0.10410270       0.007
   0.12492324  0.12492324  0.10410270       0.003
   0.12492324  0.12492324  0.12492324       0.001
 
 k-points in reciprocal lattice and weights: K-Mesh                                  
   0.00000000  0.00000000  0.00000000       0.001
   0.08333333  0.00000000  0.00000000       0.003
   0.16666667  0.00000000  0.00000000       0.003
   0.25000000  0.00000000  0.00000000       0.003
   0.33333333  0.00000000  0.00000000       0.003
   0.41666667  0.00000000  0.00000000       0.003
   0.50000000  0.00000000  0.00000000       0.002
   0.08333333  0.08333333  0.00000000       0.007
   0.16666667  0.08333333  0.00000000       0.014
   0.25000000  0.08333333  0.00000000       0.014
   0.33333333  0.08333333  0.00000000       0.014
   0.41666667  0.08333333  0.00000000       0.014
   0.50000000  0.08333333  0.00000000       0.007
   0.16666667  0.16666667  0.00000000       0.007
   0.25000000  0.16666667  0.00000000       0.014
   0.33333333  0.16666667  0.00000000       0.014
   0.41666667  0.16666667  0.00000000       0.014
   0.50000000  0.16666667  0.00000000       0.007
   0.25000000  0.25000000  0.00000000       0.007
   0.33333333  0.25000000  0.00000000       0.014
   0.41666667  0.25000000  0.00000000       0.014
   0.50000000  0.25000000  0.00000000       0.007
   0.33333333  0.33333333  0.00000000       0.007
   0.41666667  0.33333333  0.00000000       0.014
   0.50000000  0.33333333  0.00000000       0.007
   0.41666667  0.41666667  0.00000000       0.007
   0.50000000  0.41666667  0.00000000       0.007
   0.50000000  0.50000000  0.00000000       0.002
   0.08333333  0.08333333  0.08333333       0.005
   0.16666667  0.08333333  0.08333333       0.014
   0.25000000  0.08333333  0.08333333       0.014
   0.33333333  0.08333333  0.08333333       0.014
   0.41666667  0.08333333  0.08333333       0.014
   0.50000000  0.08333333  0.08333333       0.007
   0.16666667  0.16666667  0.08333333       0.014
   0.25000000  0.16666667  0.08333333       0.028
   0.33333333  0.16666667  0.08333333       0.028
   0.41666667  0.16666667  0.08333333       0.028
   0.50000000  0.16666667  0.08333333       0.014
   0.25000000  0.25000000  0.08333333       0.014
   0.33333333  0.25000000  0.08333333       0.028
   0.41666667  0.25000000  0.08333333       0.028
   0.50000000  0.25000000  0.08333333       0.014
   0.33333333  0.33333333  0.08333333       0.014
   0.41666667  0.33333333  0.08333333       0.028
   0.50000000  0.33333333  0.08333333       0.014
   0.41666667  0.41666667  0.08333333       0.014
   0.50000000  0.41666667  0.08333333       0.014
   0.50000000  0.50000000  0.08333333       0.003
   0.16666667  0.16666667  0.16666667       0.005
   0.25000000  0.16666667  0.16666667       0.014
   0.33333333  0.16666667  0.16666667       0.014
   0.41666667  0.16666667  0.16666667       0.014
   0.50000000  0.16666667  0.16666667       0.007
   0.25000000  0.25000000  0.16666667       0.014
   0.33333333  0.25000000  0.16666667       0.028
   0.41666667  0.25000000  0.16666667       0.028
   0.50000000  0.25000000  0.16666667       0.014
   0.33333333  0.33333333  0.16666667       0.014
   0.41666667  0.33333333  0.16666667       0.028
   0.50000000  0.33333333  0.16666667       0.014
   0.41666667  0.41666667  0.16666667       0.014
   0.50000000  0.41666667  0.16666667       0.014
   0.50000000  0.50000000  0.16666667       0.003
   0.25000000  0.25000000  0.25000000       0.005
   0.33333333  0.25000000  0.25000000       0.014
   0.41666667  0.25000000  0.25000000       0.014
   0.50000000  0.25000000  0.25000000       0.007
   0.33333333  0.33333333  0.25000000       0.014
   0.41666667  0.33333333  0.25000000       0.028
   0.50000000  0.33333333  0.25000000       0.014
   0.41666667  0.41666667  0.25000000       0.014
   0.50000000  0.41666667  0.25000000       0.014
   0.50000000  0.50000000  0.25000000       0.003
   0.33333333  0.33333333  0.33333333       0.005
   0.41666667  0.33333333  0.33333333       0.014
   0.50000000  0.33333333  0.33333333       0.007
   0.41666667  0.41666667  0.33333333       0.014
   0.50000000  0.41666667  0.33333333       0.014
   0.50000000  0.50000000  0.33333333       0.003
   0.41666667  0.41666667  0.41666667       0.005
   0.50000000  0.41666667  0.41666667       0.007
   0.50000000  0.50000000  0.41666667       0.003
   0.50000000  0.50000000  0.50000000       0.001
 
 position of ions in fractional coordinates (direct lattice) 
   0.00000000  0.00000000  0.50000000
   0.00000000  0.50000000  0.00000000
   0.50000000  0.00000000  0.00000000
   0.00000000  0.00000000  0.00000000
 
 position of ions in cartesian coordinates  (Angst):
   0.00000000  0.00000000  2.00122897
   0.00000000  2.00122897  0.00000000
   2.00122897  0.00000000  0.00000000
   0.00000000  0.00000000  0.00000000
 


--------------------------------------------------------------------------------------------------------


 k-point  1 :   0.0000 0.0000 0.0000  plane waves:    1743
 k-point  2 :   0.0833 0.0000 0.0000  plane waves:    1759
 k-point  3 :   0.1667 0.0000 0.0000  plane waves:    1755
 k-point  4 :   0.2500 0.0000 0.0000  plane waves:    1747
 k-point  5 :   0.3333 0.0000 0.0000  plane waves:    1727
 k-point  6 :   0.4167 0.0000 0.0000  plane waves:    1727
 k-point  7 :   0.5000 0.0000 0.0000  plane waves:    1750
 k-point  8 :   0.0833 0.0833 0.0000  plane waves:    1749
 k-point  9 :   0.1667 0.0833 0.0000  plane waves:    1745
 k-point 10 :   0.2500 0.0833 0.0000  plane waves:    1738
 k-point 11 :   0.3333 0.0833 0.0000  plane waves:    1736
 k-point 12 :   0.4167 0.0833 0.0000  plane waves:    1725
 k-point 13 :   0.5000 0.0833 0.0000  plane waves:    1728
 k-point 14 :   0.1667 0.1667 0.0000  plane waves:    1727
 k-point 15 :   0.2500 0.1667 0.0000  plane waves:    1732
 k-point 16 :   0.3333 0.1667 0.0000  plane waves:    1725
 k-point 17 :   0.4167 0.1667 0.0000  plane waves:    1725
 k-point 18 :   0.5000 0.1667 0.0000  plane waves:    1728
 k-point 19 :   0.2500 0.2500 0.0000  plane waves:    1735
 k-point 20 :   0.3333 0.2500 0.0000  plane waves:    1736
 k-point 21 :   0.4167 0.2500 0.0000  plane waves:    1722
 k-point 22 :   0.5000 0.2500 0.0000  plane waves:    1724
 k-point 23 :   0.3333 0.3333 0.0000  plane waves:    1734
 k-point 24 :   0.4167 0.3333 0.0000  plane waves:    1712
 k-point 25 :   0.5000 0.3333 0.0000  plane waves:    1714
 k-point 26 :   0.4167 0.4167 0.0000  plane waves:    1712
 k-point 27 :   0.5000 0.4167 0.0000  plane waves:    1704
 k-point 28 :   0.5000 0.5000 0.0000  plane waves:    1692
 k-point 29 :   0.0833 0.0833 0.0833  plane waves:    1755
 k-point 30 :   0.1667 0.0833 0.0833  plane waves:    1742
 k-point 31 :   0.2500 0.0833 0.0833  plane waves:    1739
 k-point 32 :   0.3333 0.0833 0.0833  plane waves:    1730
 k-point 33 :   0.4167 0.0833 0.0833  plane waves:    1733
 k-point 34 :   0.5000 0.0833 0.0833  plane waves:    1728
 k-point 35 :   0.1667 0.1667 0.0833  plane waves:    1728
 k-point 36 :   0.2500 0.1667 0.0833  plane waves:    1731
 k-point 37 :   0.3333 0.1667 0.0833  plane waves:    1734
 k-point 38 :   0.4167 0.1667 0.0833  plane waves:    1736
 k-point 39 :   0.5000 0.1667 0.0833  plane waves:    1724
 k-point 40 :   0.2500 0.2500 0.0833  plane waves:    1730
 k-point 41 :   0.3333 0.2500 0.0833  plane waves:    1726
 k-point 42 :   0.4167 0.2500 0.0833  plane waves:    1719
 k-point 43 :   0.5000 0.2500 0.0833  plane waves:    1724
 k-point 44 :   0.3333 0.3333 0.0833  plane waves:    1719
 k-point 45 :   0.4167 0.3333 0.0833  plane waves:    1717
 k-point 46 :   0.5000 0.3333 0.0833  plane waves:    1716
 k-point 47 :   0.4167 0.4167 0.0833  plane waves:    1715
 k-point 48 :   0.5000 0.4167 0.0833  plane waves:    1710
 k-point 49 :   0.5000 0.5000 0.0833  plane waves:    1708
 k-point 50 :   0.1667 0.1667 0.1667  plane waves:    1719
 k-point 51 :   0.2500 0.1667 0.1667  plane waves:    1730
 k-point 52 :   0.3333 0.1667 0.1667  plane waves:    1728
 k-point 53 :   0.4167 0.1667 0.1667  plane waves:    1726
 k-point 54 :   0.5000 0.1667 0.1667  plane waves:    1734
 k-point 55 :   0.2500 0.2500 0.1667  plane waves:    1729
 k-point 56 :   0.3333 0.2500 0.1667  plane waves:    1728
 k-point 57 :   0.4167 0.2500 0.1667  plane waves:    1726
 k-point 58 :   0.5000 0.2500 0.1667  plane waves:    1728
 k-point 59 :   0.3333 0.3333 0.1667  plane waves:    1727
 k-point 60 :   0.4167 0.3333 0.1667  plane waves:    1726
 k-point 61 :   0.5000 0.3333 0.1667  plane waves:    1712
 k-point 62 :   0.4167 0.4167 0.1667  plane waves:    1726
 k-point 63 :   0.5000 0.4167 0.1667  plane waves:    1718
 k-point 64 :   0.5000 0.5000 0.1667  plane waves:    1724
 k-point 65 :   0.2500 0.2500 0.2500  plane waves:    1722
 k-point 66 :   0.3333 0.2500 0.2500  plane waves:    1723
 k-point 67 :   0.4167 0.2500 0.2500  plane waves:    1722
 k-point 68 :   0.5000 0.2500 0.2500  plane waves:    1728
 k-point 69 :   0.3333 0.3333 0.2500  plane waves:    1724
 k-point 70 :   0.4167 0.3333 0.2500  plane waves:    1727
 k-point 71 :   0.5000 0.3333 0.2500  plane waves:    1722
 k-point 72 :   0.4167 0.4167 0.2500  plane waves:    1725
 k-point 73 :   0.5000 0.4167 0.2500  plane waves:    1730
 k-point 74 :   0.5000 0.5000 0.2500  plane waves:    1732
 k-point 75 :   0.3333 0.3333 0.3333  plane waves:    1721
 k-point 76 :   0.4167 0.3333 0.3333  plane waves:    1720
 k-point 77 :   0.5000 0.3333 0.3333  plane waves:    1718
 k-point 78 :   0.4167 0.4167 0.3333  plane waves:    1721
 k-point 79 :   0.5000 0.4167 0.3333  plane waves:    1734
 k-point 80 :   0.5000 0.5000 0.3333  plane waves:    1724
 k-point 81 :   0.4167 0.4167 0.4167  plane waves:    1727
 k-point 82 :   0.5000 0.4167 0.4167  plane waves:    1712
 k-point 83 :   0.5000 0.5000 0.4167  plane waves:    1720
 k-point 84 :   0.5000 0.5000 0.5000  plane waves:    1736

 maximum and minimum number of plane-waves per node :       451      412

 maximum number of plane-waves:      1759
 maximum index in each direction: 
   IXMAX=    7   IYMAX=    7   IZMAX=    7
   IXMIN=   -7   IYMIN=   -7   IZMIN=   -7

 NGX is ok and might be reduce to  30
 NGY is ok and might be reduce to  30
 NGZ is ok and might be reduce to  30

 parallel 3D FFT for wavefunctions:
    minimum data exchange during FFTs selected (reduces bandwidth)
 parallel 3D FFT for charge:
    minimum data exchange during FFTs selected (reduces bandwidth)


 total amount of memory used by VASP on root node    48822. kBytes
========================================================================

   base      :      30000. kBytes
   nonl-proj :      10769. kBytes
   fftplans  :       1585. kBytes
   grid      :       1470. kBytes
   one-center:         31. kBytes
   wavefun   :       4967. kBytes
 
     INWAV:  cpu time    0.0000: real time    0.0008
 Broyden mixing: mesh for mixing (old mesh)
   NGX = 15   NGY = 15   NGZ = 15
  (NGX  = 60   NGY  = 60   NGZ  = 60)
  gives a total of   3375 points

 initial charge density was supplied:
 charge density of overlapping atoms calculated
 number of electron      33.0000000 magnetization       4.0000000
 keeping initial charge density in first step


--------------------------------------------------------------------------------------------------------


 Maximum index for augmentation-charges         5535 (set IRDMAX)


--------------------------------------------------------------------------------------------------------


 First call to EWALD:  gamma=   0.443
 Maximum number of real-space cells 3x 3x 3
 Maximum number of reciprocal cells 3x 3x 3

 FEWALD executed in parallel
    FEWALD:  cpu time    0.0020: real time    0.0024


----------------------------------------- Iteration    1(   1)  ---------------------------------------


    POTLOK:  cpu time    0.0190: real time    0.0197
    SETDIJ:  cpu time    0.0300: real time    0.0312
     EDDAV:  cpu time    1.6248: real time    1.6368
       DOS:  cpu time    0.0030: real time    0.0033
    --------------------------------------------
      LOOP:  cpu time    1.6817: real time    1.7027

 eigenvalue-minimisations  :  8064
 total energy-change (2. order) : 0.3351448E+03  (-0.1820933E+04)
 number of electron      33.0000000 magnetization       4.0000000
 augmentation part       33.0000000 magnetization       4.0000000

 Free energy of the ion-electron system (eV)
  ---------------------------------------------------
  alpha Z        PSCENC =        81.38125666
  Ewald energy   TEWEN  =     -1880.29345068
  -Hartree energ DENC   =     -1434.82578028
  -exchange      EXHF   =         0.00000000
  -V(xc)+E(xc)   XCENC  =       172.67646684
  PAW double counting   =      2881.65819673    -2876.29189761
  entropy T*S    EENTRO =        -0.00174763
  eigenvalues    EBANDS =      -176.08873683
  atomic energy  EATOM  =      3566.93050158
  Solvation  Ediel_sol  =         0.00000000
  ---------------------------------------------------
  free energy    TOTEN  =       335.14480879 eV

  energy without entropy =      335.14655642  energy(sigma->0) =      335.14568260


--------------------------------------------------------------------------------------------------------




----------------------------------------- Iteration    1(   2)  ---------------------------------------


     EDDAV:  cpu time    1.9447: real time    1.9480
       DOS:  cpu time    0.0020: real time    0.0021
    --------------------------------------------
      LOOP:  cpu time    1.9487: real time    1.9665

 eigenvalue-minimisations  : 10116
 total energy-change (2. order) :-0.3427106E+03  (-0.3367747E+03)
 number of electron      33.0000000 magnetization       4.0000000
 augmentation part       33.0000000 magnetization       4.0000000

 Free energy of the ion-electron system (eV)
  ---------------------------------------------------
  alpha Z        PSCENC =        81.38125666
  Ewald energy   TEWEN  =     -1880.29345068
  -Hartree energ DENC   =     -1434.82578028
  -exchange      EXHF   =         0.00000000
  -V(xc)+E(xc)   XCENC  =       172.67646684
  PAW double counting   =      2881.65819673    -2876.29189761
  entropy T*S    EENTRO =        -0.00265131
  eigenvalues    EBANDS =      -518.79844179
  atomic energy  EATOM  =      3566.93050158
  Solvation  Ediel_sol  =         0.00000000
  ---------------------------------------------------
  free energy    TOTEN  =        -7.56579985 eV

  energy without entropy =       -7.56314854  energy(sigma->0) =       -7.56447420


--------------------------------------------------------------------------------------------------------




----------------------------------------- Iteration    1(   3)  ---------------------------------------


     EDDAV:  cpu time    1.7107: real time    1.7135
       DOS:  cpu time    0.0020: real time    0.0022
    --------------------------------------------
      LOOP:  cpu time    1.7147: real time    1.7302

 eigenvalue-minimisations  :  8724
 total energy-change (2. order) :-0.1958872E+02  (-0.1955394E+02)
 number of electron      33.0000000 magnetization       4.0000000
 augmentation part       33.0000000 magnetization       4.0000000

 Free energy of the ion-electron system (eV)
  ---------------------------------------------------
  alpha Z        PSCENC =        81.38125666
  Ewald energy   TEWEN  =     -1880.29345068
  -Hartree energ DENC   =     -1434.82578028
  -exchange      EXHF   =         0.00000000
  -V(xc)+E(xc)   XCENC  =       172.67646684
  PAW double counting   =      2881.65819673    -2876.29189761
  entropy T*S    EENTRO =        -0.00382645
  eigenvalues    EBANDS =      -538.38599138
  atomic energy  EATOM  =      3566.93050158
  Solvation  Ediel_sol  =         0.00000000
  ---------------------------------------------------
  free energy    TOTEN  =       -27.15452458 eV

  energy without entropy =      -27.15069814  energy(sigma->0) =      -27.15261136


--------------------------------------------------------------------------------------------------------




----------------------------------------- Iteration    1(   4)  ---------------------------------------


     EDDAV:  cpu time    2.5216: real time    2.5261
       DOS:  cpu time    0.0020: real time    0.0021
    --------------------------------------------
      LOOP:  cpu time    2.5266: real time    2.5438

 eigenvalue-minimisations  : 13272
 total energy-change (2. order) :-0.7116101E+00  (-0.7110310E+00)
 number of electron      33.0000000 magnetization       4.0000000
 augmentation part       33.0000000 magnetization       4.0000000

 Free energy of the ion-electron system (eV)
  ---------------------------------------------------
  alpha Z        PSCENC =        81.38125666
  Ewald energy   TEWEN  =     -1880.29345068
  -Hartree energ DENC   =     -1434.82578028
  -exchange      EXHF   =         0.00000000
  -V(xc)+E(xc)   XCENC  =       172.67646684
  PAW double counting   =      2881.65819673    -2876.29189761
  entropy T*S    EENTRO =        -0.00405547
  eigenvalues    EBANDS =      -539.09737249
  atomic energy  EATOM  =      3566.93050158
  Solvation  Ediel_sol  =         0.00000000
  ---------------------------------------------------
  free energy    TOTEN  =       -27.86613471 eV

  energy without entropy =      -27.86207925  energy(sigma->0) =      -27.86410698


--------------------------------------------------------------------------------------------------------




----------------------------------------- Iteration    1(   5)  ---------------------------------------


     EDDAV:  cpu time    1.6927: real time    1.6956
       DOS:  cpu time    0.0030: real time    0.0022
    CHARGE:  cpu time    0.1020: real time    0.1050
    MIXING:  cpu time    0.0020: real time    0.0022
    --------------------------------------------
      LOOP:  cpu time    1.8017: real time    1.8229

 eigenvalue-minimisations  :  8604
 total energy-change (2. order) :-0.6324544E-02  (-0.6324517E-02)
 number of electron      33.0000002 magnetization       3.1634879
 augmentation part        7.7664887 magnetization       2.7725941

 Broyden mixing:
  rms(total) = 0.20717E+01    rms(broyden)= 0.20716E+01
  rms(prec ) = 0.38469E+01
  weight for this iteration     100.00

 Free energy of the ion-electron system (eV)
  ---------------------------------------------------
  alpha Z        PSCENC =        81.38125666
  Ewald energy   TEWEN  =     -1880.29345068
  -Hartree energ DENC   =     -1434.82578028
  -exchange      EXHF   =         0.00000000
  -V(xc)+E(xc)   XCENC  =       172.67646684
  PAW double counting   =      2881.65819673    -2876.29189761
  entropy T*S    EENTRO =        -0.00405609
  eigenvalues    EBANDS =      -539.10369641
  atomic energy  EATOM  =      3566.93050158
  Solvation  Ediel_sol  =         0.00000000
  ---------------------------------------------------
  free energy    TOTEN  =       -27.87245926 eV

  energy without entropy =      -27.86840317  energy(sigma->0) =      -27.87043121


--------------------------------------------------------------------------------------------------------




----------------------------------------- Iteration    1(   6)  ---------------------------------------


    POTLOK:  cpu time    0.0180: real time    0.0177
    SETDIJ:  cpu time    0.0300: real time    0.0297
     EDDAV:  cpu time    1.9737: real time    1.9770
       DOS:  cpu time    0.0020: real time    0.0022
    CHARGE:  cpu time    0.1030: real time    0.1037
    MIXING:  cpu time    0.0020: real time    0.0013
    --------------------------------------------
      LOOP:  cpu time    2.1307: real time    2.1487

 eigenvalue-minimisations  : 10380
 total energy-change (2. order) : 0.2305712E+01  (-0.3165744E+00)
 number of electron      33.0000002 magnetization       1.6642895
 augmentation part        7.8486598 magnetization       1.1489677

 Broyden mixing:
  rms(total) = 0.14586E+01    rms(broyden)= 0.14586E+01
  rms(prec ) = 0.25787E+01
  weight for this iteration     100.00

 eigenvalues of (default mixing * dielectric matrix)
  average eigenvalue GAMMA=   2.6312
  2.6312

 Free energy of the ion-electron system (eV)
  ---------------------------------------------------
  alpha Z        PSCENC =        81.38125666
  Ewald energy   TEWEN  =     -1880.29345068
  -Hartree energ DENC   =     -1434.04958794
  -exchange      EXHF   =         0.00000000
  -V(xc)+E(xc)   XCENC  =       172.80891881
  PAW double counting   =      2923.60684635    -2919.59470866
  entropy T*S    EENTRO =        -0.00426837
  eigenvalues    EBANDS =      -536.35225499
  atomic energy  EATOM  =      3566.93050158
  Solvation  Ediel_sol  =         0.00000000
  ---------------------------------------------------
  free energy    TOTEN  =       -25.56674723 eV

  energy without entropy =      -25.56247886  energy(sigma->0) =      -25.56461305


--------------------------------------------------------------------------------------------------------




----------------------------------------- Iteration    1(   7)  ---------------------------------------


    POTLOK:  cpu time    0.0180: real time    0.0177
    SETDIJ:  cpu time    0.0300: real time    0.0298
     EDDAV:  cpu time    2.0057: real time    2.0088
       DOS:  cpu time    0.0020: real time    0.0021
    CHARGE:  cpu time    0.1030: real time    0.1036
    MIXING:  cpu time    0.0010: real time    0.0008
    --------------------------------------------
      LOOP:  cpu time    2.1617: real time    2.1783

 eigenvalue-minimisations  : 10560
 total energy-change (2. order) : 0.1704323E+01  (-0.6587974E+00)
 number of electron      33.0000001 magnetization       1.2084153
 augmentation part        7.6772864 magnetization       0.6703400

 Broyden mixing:
  rms(total) = 0.57850E+00    rms(broyden)= 0.57831E+00
  rms(prec ) = 0.81800E+00
  weight for this iteration     100.00

 eigenvalues of (default mixing * dielectric matrix)
  average eigenvalue GAMMA=   2.3107
  1.2447  3.3766

 Free energy of the ion-electron system (eV)
  ---------------------------------------------------
  alpha Z        PSCENC =        81.38125666
  Ewald energy   TEWEN  =     -1880.29345068
  -Hartree energ DENC   =     -1440.56386090
  -exchange      EXHF   =         0.00000000
  -V(xc)+E(xc)   XCENC  =       173.59441194
  PAW double counting   =      3041.14870157    -3039.46862339
  entropy T*S    EENTRO =        -0.00380846
  eigenvalues    EBANDS =      -526.58755281
  atomic energy  EATOM  =      3566.93050158
  Solvation  Ediel_sol  =         0.00000000
  ---------------------------------------------------
  free energy    TOTEN  =       -23.86242450 eV

  energy without entropy =      -23.85861604  energy(sigma->0) =      -23.86052027


--------------------------------------------------------------------------------------------------------




----------------------------------------- Iteration    1(   8)  ---------------------------------------


    POTLOK:  cpu time    0.0170: real time    0.0177
    SETDIJ:  cpu time    0.0300: real time    0.0299
     EDDAV:  cpu time    2.3766: real time    2.3796
       DOS:  cpu time    0.0020: real time    0.0021
    CHARGE:  cpu time    0.1030: real time    0.1035
    MIXING:  cpu time    0.0000: real time    0.0007
    --------------------------------------------
      LOOP:  cpu time    2.5306: real time    2.5486

 eigenvalue-minimisations  : 12600
 total energy-change (2. order) : 0.1311040E-01  (-0.6900766E-01)
 number of electron      33.0000001 magnetization       1.0931255
 augmentation part        7.6130357 magnetization       0.5507337

 Broyden mixing:
  rms(total) = 0.50136E+00    rms(broyden)= 0.50132E+00
  rms(prec ) = 0.61791E+00
  weight for this iteration     100.00

 eigenvalues of (default mixing * dielectric matrix)
  average eigenvalue GAMMA=   2.1431
  3.4470  0.8907  2.0916

 Free energy of the ion-electron system (eV)
  ---------------------------------------------------
  alpha Z        PSCENC =        81.38125666
  Ewald energy   TEWEN  =     -1880.29345068
  -Hartree energ DENC   =     -1442.13992628
  -exchange      EXHF   =         0.00000000
  -V(xc)+E(xc)   XCENC  =       173.81785229
  PAW double counting   =      3101.38420508    -3100.13398710
  entropy T*S    EENTRO =        -0.00351850
  eigenvalues    EBANDS =      -524.79224714
  atomic energy  EATOM  =      3566.93050158
  Solvation  Ediel_sol  =         0.00000000
  ---------------------------------------------------
  free energy    TOTEN  =       -23.84931409 eV

  energy without entropy =      -23.84579559  energy(sigma->0) =      -23.84755484


--------------------------------------------------------------------------------------------------------




----------------------------------------- Iteration    1(   9)  ---------------------------------------


    POTLOK:  cpu time    0.0170: real time    0.0177
    SETDIJ:  cpu time    0.0290: real time    0.0298
     EDDAV:  cpu time    1.8197: real time    1.8233
       DOS:  cpu time    0.0020: real time    0.0021
    CHARGE:  cpu time    0.1040: real time    0.1035
    MIXING:  cpu time    0.0010: real time    0.0007
    --------------------------------------------
      LOOP:  cpu time    1.9777: real time    1.9932

 eigenvalue-minimisations  :  9420
 total energy-change (2. order) :-0.1811875E-01  (-0.2177112E-01)
 number of electron      33.0000001 magnetization       0.7510054
 augmentation part        7.6551627 magnetization       0.2219012

 Broyden mixing:
  rms(total) = 0.30715E+00    rms(broyden)= 0.30714E+00
  rms(prec ) = 0.39746E+00
  weight for this iteration     100.00

 eigenvalues of (default mixing * dielectric matrix)
  average eigenvalue GAMMA=   2.7772
  5.6144  3.2933  1.2545  0.9467

 Free energy of the ion-electron system (eV)
  ---------------------------------------------------
  alpha Z        PSCENC =        81.38125666
  Ewald energy   TEWEN  =     -1880.29345068
  -Hartree energ DENC   =     -1439.83695589
  -exchange      EXHF   =         0.00000000
  -V(xc)+E(xc)   XCENC  =       173.61351520
  PAW double counting   =      3204.99296651    -3202.99213853
  entropy T*S    EENTRO =        -0.00372074
  eigenvalues    EBANDS =      -527.65940696
  atomic energy  EATOM  =      3566.93050158
  Solvation  Ediel_sol  =         0.00000000
  ---------------------------------------------------
  free energy    TOTEN  =       -23.86743284 eV

  energy without entropy =      -23.86371210  energy(sigma->0) =      -23.86557247


--------------------------------------------------------------------------------------------------------




----------------------------------------- Iteration    1(  10)  ---------------------------------------


    POTLOK:  cpu time    0.0170: real time    0.0177
    SETDIJ:  cpu time    0.0300: real time    0.0300
     EDDAV:  cpu time    1.8777: real time    1.8814
       DOS:  cpu time    0.0020: real time    0.0021
    CHARGE:  cpu time    0.1030: real time    0.1034
    MIXING:  cpu time    0.0010: real time    0.0007
    --------------------------------------------
      LOOP:  cpu time    2.0337: real time    2.0453

 eigenvalue-minimisations  :  9624
 total energy-change (2. order) : 0.5090186E-01  (-0.1310209E-01)
 number of electron      33.0000001 magnetization       0.9614599
 augmentation part        7.6606493 magnetization       0.4404230

 Broyden mixing:
  rms(total) = 0.13115E+00    rms(broyden)= 0.13115E+00
  rms(prec ) = 0.16019E+00
  weight for this iteration     100.00

 eigenvalues of (default mixing * dielectric matrix)
  average eigenvalue GAMMA=   3.0591
  7.2061  3.0418  3.0418  0.9869  1.0189

 Free energy of the ion-electron system (eV)
  ---------------------------------------------------
  alpha Z        PSCENC =        81.38125666
  Ewald energy   TEWEN  =     -1880.29345068
  -Hartree energ DENC   =     -1440.49933740
  -exchange      EXHF   =         0.00000000
  -V(xc)+E(xc)   XCENC  =       173.77038420
  PAW double counting   =      3330.63391717    -3328.42841621
  entropy T*S    EENTRO =        -0.00357125
  eigenvalues    EBANDS =      -527.30781505
  atomic energy  EATOM  =      3566.93050158
  Solvation  Ediel_sol  =         0.00000000
  ---------------------------------------------------
  free energy    TOTEN  =       -23.81653098 eV

  energy without entropy =      -23.81295973  energy(sigma->0) =      -23.81474536


--------------------------------------------------------------------------------------------------------




----------------------------------------- Iteration    1(  11)  ---------------------------------------


    POTLOK:  cpu time    0.0180: real time    0.0177
    SETDIJ:  cpu time    0.0300: real time    0.0299
     EDDAV:  cpu time    1.6058: real time    1.6094
       DOS:  cpu time    0.0030: real time    0.0021
    CHARGE:  cpu time    0.1030: real time    0.1031
    MIXING:  cpu time    0.0010: real time    0.0008
    --------------------------------------------
      LOOP:  cpu time    1.7627: real time    1.7787

 eigenvalue-minimisations  :  8136
 total energy-change (2. order) :-0.4405286E-01  (-0.4371833E-02)
 number of electron      33.0000001 magnetization       0.9586506
 augmentation part        7.6502972 magnetization       0.4342434

 Broyden mixing:
  rms(total) = 0.79937E-01    rms(broyden)= 0.79936E-01
  rms(prec ) = 0.95775E-01
  weight for this iteration     100.00

 eigenvalues of (default mixing * dielectric matrix)
  average eigenvalue GAMMA=   2.9132
  8.3870  3.1982  3.1982  1.0171  0.9115  0.7672

 Free energy of the ion-electron system (eV)
  ---------------------------------------------------
  alpha Z        PSCENC =        81.38125666
  Ewald energy   TEWEN  =     -1880.29345068
  -Hartree energ DENC   =     -1442.16079328
  -exchange      EXHF   =         0.00000000
  -V(xc)+E(xc)   XCENC  =       173.79736406
  PAW double counting   =      3333.49516202    -3331.21733356
  entropy T*S    EENTRO =        -0.00361498
  eigenvalues    EBANDS =      -525.78967566
  atomic energy  EATOM  =      3566.93050158
  Solvation  Ediel_sol  =         0.00000000
  ---------------------------------------------------
  free energy    TOTEN  =       -23.86058384 eV

  energy without entropy =      -23.85696886  energy(sigma->0) =      -23.85877635


--------------------------------------------------------------------------------------------------------




----------------------------------------- Iteration    1(  12)  ---------------------------------------


    POTLOK:  cpu time    0.0180: real time    0.0177
    SETDIJ:  cpu time    0.0300: real time    0.0299
     EDDAV:  cpu time    1.6907: real time    1.6938
       DOS:  cpu time    0.0020: real time    0.0021
    CHARGE:  cpu time    0.1030: real time    0.1033
    MIXING:  cpu time    0.0000: real time    0.0008
    --------------------------------------------
      LOOP:  cpu time    1.8467: real time    1.8626

 eigenvalue-minimisations  :  8592
 total energy-change (2. order) :-0.9526982E-03  (-0.4355246E-03)
 number of electron      33.0000001 magnetization       0.9918961
 augmentation part        7.6480517 magnetization       0.4676489

 Broyden mixing:
  rms(total) = 0.31144E-01    rms(broyden)= 0.31143E-01
  rms(prec ) = 0.39746E-01
  weight for this iteration     100.00

 eigenvalues of (default mixing * dielectric matrix)
  average eigenvalue GAMMA=   3.1323
  9.5680  3.5060  3.5060  2.3713  1.0249  1.0249  0.9252

 Free energy of the ion-electron system (eV)
  ---------------------------------------------------
  alpha Z        PSCENC =        81.38125666
  Ewald energy   TEWEN  =     -1880.29345068
  -Hartree energ DENC   =     -1443.15423785
  -exchange      EXHF   =         0.00000000
  -V(xc)+E(xc)   XCENC  =       173.86634020
  PAW double counting   =      3365.23608610    -3362.89439137
  entropy T*S    EENTRO =        -0.00358245
  eigenvalues    EBANDS =      -524.93005874
  atomic energy  EATOM  =      3566.93050158
  Solvation  Ediel_sol  =         0.00000000
  ---------------------------------------------------
  free energy    TOTEN  =       -23.86153654 eV

  energy without entropy =      -23.85795409  energy(sigma->0) =      -23.85974532


--------------------------------------------------------------------------------------------------------




----------------------------------------- Iteration    1(  13)  ---------------------------------------


    POTLOK:  cpu time    0.0170: real time    0.0176
    SETDIJ:  cpu time    0.0300: real time    0.0299
     EDDAV:  cpu time    1.6298: real time    1.6336
       DOS:  cpu time    0.0020: real time    0.0021
    CHARGE:  cpu time    0.1030: real time    0.1032
    MIXING:  cpu time    0.0010: real time    0.0008
    --------------------------------------------
      LOOP:  cpu time    1.7867: real time    1.8035

 eigenvalue-minimisations  :  8220
 total energy-change (2. order) :-0.2757555E-03  (-0.1737418E-03)
 number of electron      33.0000001 magnetization       0.9979189
 augmentation part        7.6438778 magnetization       0.4718220

 Broyden mixing:
  rms(total) = 0.15783E-01    rms(broyden)= 0.15783E-01
  rms(prec ) = 0.21720E-01
  weight for this iteration     100.00

 eigenvalues of (default mixing * dielectric matrix)
  average eigenvalue GAMMA=   2.9844
  9.9479  3.6053  3.6053  2.3932  0.9422  0.9422  1.0596  1.3792

 Free energy of the ion-electron system (eV)
  ---------------------------------------------------
  alpha Z        PSCENC =        81.38125666
  Ewald energy   TEWEN  =     -1880.29345068
  -Hartree energ DENC   =     -1443.87363214
  -exchange      EXHF   =         0.00000000
  -V(xc)+E(xc)   XCENC  =       173.90064860
  PAW double counting   =      3373.26895527    -3370.89538483
  entropy T*S    EENTRO =        -0.00357902
  eigenvalues    EBANDS =      -524.27712774
  atomic energy  EATOM  =      3566.93050158
  Solvation  Ediel_sol  =         0.00000000
  ---------------------------------------------------
  free energy    TOTEN  =       -23.86181230 eV

  energy without entropy =      -23.85823328  energy(sigma->0) =      -23.86002279


--------------------------------------------------------------------------------------------------------




----------------------------------------- Iteration    1(  14)  ---------------------------------------


    POTLOK:  cpu time    0.0170: real time    0.0176
    SETDIJ:  cpu time    0.0300: real time    0.0299
     EDDAV:  cpu time    1.9057: real time    1.9085
       DOS:  cpu time    0.0020: real time    0.0021
    --------------------------------------------
      LOOP:  cpu time    1.9577: real time    1.9773

 eigenvalue-minimisations  :  9144
 total energy-change (2. order) :-0.2265493E-04  (-0.6321484E-05)
 number of electron      33.0000001 magnetization       0.9979189
 augmentation part        7.6438778 magnetization       0.4718220

 Free energy of the ion-electron system (eV)
  ---------------------------------------------------
  alpha Z        PSCENC =        81.38125666
  Ewald energy   TEWEN  =     -1880.29345068
  -Hartree energ DENC   =     -1444.08614580
  -exchange      EXHF   =         0.00000000
  -V(xc)+E(xc)   XCENC  =       173.91003842
  PAW double counting   =      3377.57942730    -3375.17674767
  entropy T*S    EENTRO =        -0.00358021
  eigenvalues    EBANDS =      -524.10313454
  atomic energy  EATOM  =      3566.93050158
  Solvation  Ediel_sol  =         0.00000000
  ---------------------------------------------------
  free energy    TOTEN  =       -23.86183495 eV

  energy without entropy =      -23.85825474  energy(sigma->0) =      -23.86004485


--------------------------------------------------------------------------------------------------------




 average (electrostatic) potential at core
  the test charge radii are     0.7167  1.0397
  (the norm of the test charge is              1.0000)
       1 -78.9393       2 -78.9393       3 -78.9393       4 -81.3627
 
 
 
 E-fermi :   2.3077     XC(G=0):  -8.2746     alpha+bet : -7.4005


 spin component 1

 k-point     1 :       0.0000    0.0000    0.0000
  band No.  band energies     occupation 
      1     -57.7066      1.00000
      2     -33.9190      1.00000
      3     -33.9190      1.00000
      4     -33.9190      1.00000
      5     -22.9294      1.00000
      6     -22.5060      1.00000
      7     -22.5060      1.00000
      8      -4.9127      1.00000
      9      -4.9127      1.00000
     10      -4.9127      1.00000
     11      -3.2931      1.00000
     12      -3.2931      1.00000
     13      -3.2931      1.00000
     14      -3.2881      1.00000
     15      -3.2881      1.00000
     16      -3.2881      1.00000
     17       1.6523      1.00000
     18       1.6523      1.00000
     19       1.6523      1.00000
     20       4.1406      0.00000
     21       4.1406      0.00000
     22       5.0143      0.00000
     23      13.2177      0.00000
     24      13.6265      0.00000

 k-point     2 :       0.0833    0.0000    0.0000
  band No.  band energies     occupation 
      1     -57.7066      1.00000
      2     -33.9249      1.00000
      3     -33.9189      1.00000
      4     -33.9189      1.00000
      5     -22.9161      1.00000
      6     -22.5056      1.00000
      7     -22.4957      1.00000
      8      -4.9731      1.00000
      9      -4.9032      1.00000
     10      -4.9032      1.00000
     11      -3.3660      1.00000
     12      -3.3329      1.00000
     13      -3.3329      1.00000
     14      -3.2962      1.00000
     15      -3.2901      1.00000
     16      -3.2901      1.00000
     17       1.6538      1.00000
     18       1.7118      1.00000
     19       1.7118      1.00000
     20       4.1418      0.00000
     21       4.2510      0.00000
     22       5.1175      0.00000
     23      12.6960      0.00000
     24      13.4413      0.00000

 k-point     3 :       0.1667    0.0000    0.0000
  band No.  band energies     occupation 
      1     -57.7063      1.00000
      2     -33.9410      1.00000
      3     -33.9186      1.00000
      4     -33.9186      1.00000
      5     -22.8818      1.00000
      6     -22.5043      1.00000
      7     -22.4643      1.00000
      8      -5.1471      1.00000
      9      -4.8751      1.00000
     10      -4.8751      1.00000
     11      -3.5395      1.00000
     12      -3.4476      1.00000
     13      -3.4476      1.00000
     14      -3.3183      1.00000
     15      -3.2883      1.00000
     16      -3.2883      1.00000
     17       1.6580      1.00000
     18       1.8718      1.00000
     19       1.8718      1.00000
     20       4.1449      0.00000
     21       4.5148      0.00000
     22       5.4360      0.00000
     23      11.7401      0.00000
     24      13.6269      0.00000

 k-point     4 :       0.2500    0.0000    0.0000
  band No.  band energies     occupation 
      1     -57.7059      1.00000
      2     -33.9629      1.00000
      3     -33.9182      1.00000
      4     -33.9182      1.00000
      5     -22.8418      1.00000
      6     -22.5029      1.00000
      7     -22.4131      1.00000
      8      -5.4014      1.00000
      9      -4.8309      1.00000
     10      -4.8309      1.00000
     11      -3.7277      1.00000
     12      -3.6031      1.00000
     13      -3.6031      1.00000
     14      -3.3482      1.00000
     15      -3.2858      1.00000
     16      -3.2858      1.00000
     17       1.6637      1.00000
     18       2.0852      1.00000
     19       2.0852      1.00000
     20       4.1490      0.00000
     21       4.8114      0.00000
     22       5.9550      0.00000
     23      10.8016      0.00000
     24      13.9930      0.00000

 k-point     5 :       0.3333    0.0000    0.0000
  band No.  band energies     occupation 
      1     -57.7056      1.00000
      2     -33.9845      1.00000
      3     -33.9178      1.00000
      4     -33.9178      1.00000
      5     -22.8098      1.00000
      6     -22.5014      1.00000
      7     -22.3526      1.00000
      8      -5.6670      1.00000
      9      -4.7765      1.00000
     10      -4.7765      1.00000
     11      -3.8753      1.00000
     12      -3.7616      1.00000
     13      -3.7616      1.00000
     14      -3.3779      1.00000
     15      -3.2832      1.00000
     16      -3.2832      1.00000
     17       1.6695      1.00000
     18       2.2940      0.65026
     19       2.2940      0.65026
     20       4.1530      0.00000
     21       5.0710      0.00000
     22       6.5983      0.00000
     23       9.9132      0.00000
     24      14.5284      0.00000

 k-point     6 :       0.4167    0.0000    0.0000
  band No.  band energies     occupation 
      1     -57.7053      1.00000
      2     -34.0003      1.00000
      3     -33.9175      1.00000
      4     -33.9175      1.00000
      5     -22.7910      1.00000
      6     -22.5004      1.00000
      7     -22.3034      1.00000
      8      -5.8647      1.00000
      9      -4.7263      1.00000
     10      -4.7263      1.00000
     11      -3.9652      1.00000
     12      -3.8840      1.00000
     13      -3.8840      1.00000
     14      -3.3995      1.00000
     15      -3.2813      1.00000
     16      -3.2813      1.00000
     17       1.6737      1.00000
     18       2.4448      0.00005
     19       2.4448      0.00005
     20       4.1559      0.00000
     21       5.2517      0.00000
     22       7.2743      0.00000
     23       9.1061      0.00000
     24      14.8045      0.00000

 k-point     7 :       0.5000    0.0000    0.0000
  band No.  band energies     occupation 
      1     -57.7052      1.00000
      2     -34.0061      1.00000
      3     -33.9174      1.00000
      4     -33.9174      1.00000
      5     -22.7847      1.00000
      6     -22.5007      1.00000
      7     -22.2847      1.00000
      8      -5.9373      1.00000
      9      -4.7045      1.00000
     10      -4.7045      1.00000
     11      -3.9951      1.00000
     12      -3.9314      1.00000
     13      -3.9314      1.00000
     14      -3.4073      1.00000
     15      -3.2806      1.00000
     16      -3.2806      1.00000
     17       1.6752      1.00000
     18       2.4996      0.00000
     19       2.4996      0.00000
     20       4.1568      0.00000
     21       5.3170      0.00000
     22       7.7182      0.00000
     23       8.6201      0.00000
     24      14.9084      0.00000

 k-point     8 :       0.0833    0.0833    0.0000
  band No.  band energies     occupation 
      1     -57.7065      1.00000
      2     -33.9248      1.00000
      3     -33.9248      1.00000
      4     -33.9188      1.00000
      5     -22.9020      1.00000
      6     -22.5000      1.00000
      7     -22.4907      1.00000
      8      -4.9837      1.00000
      9      -4.9452      1.00000
     10      -4.8937      1.00000
     11      -3.4646      1.00000
     12      -3.3431      1.00000
     13      -3.3361      1.00000
     14      -3.3286      1.00000
     15      -3.3278      1.00000
     16      -3.2670      1.00000
     17       1.7102      1.00000
     18       1.7164      1.00000
     19       1.7686      1.00000
[...]
      1     -56.6986      1.00000
      2     -33.0247      1.00000
      3     -33.0247      1.00000
      4     -32.9723      1.00000
      5     -22.4778      1.00000
      6     -22.2855      1.00000
      7     -22.2855      1.00000
      8      -6.1258      1.00000
      9      -5.6214      1.00000
     10      -5.1494      1.00000
     11      -4.9033      1.00000
     12      -4.5433      1.00000
     13      -4.5433      1.00000
     14      -3.0153      1.00000
     15      -3.0153      1.00000
     16      -2.7510      1.00000
     17       5.0478      0.00000
     18       5.0478      0.00000
     19       5.3278      0.00000
     20       6.2957      0.00000
     21       7.2302      0.00000
     22       9.5258      0.00000
     23      10.7592      0.00000
     24      10.7592      0.00000

 k-point    75 :       0.3333    0.3333    0.3333
  band No.  band energies     occupation 
      1     -56.6990      1.00000
      2     -32.9993      1.00000
      3     -32.9989      1.00000
      4     -32.9989      1.00000
      5     -22.4551      1.00000
      6     -22.3476      1.00000
      7     -22.3476      1.00000
      8      -5.8866      1.00000
      9      -5.3815      1.00000
     10      -5.3815      1.00000
     11      -4.6469      1.00000
     12      -4.5516      1.00000
     13      -4.5516      1.00000
     14      -2.9807      1.00000
     15      -2.9807      1.00000
     16      -2.8982      1.00000
     17       5.0024      0.00000
     18       5.0357      0.00000
     19       5.0357      0.00000
     20       6.5745      0.00000
     21       6.5745      0.00000
     22       8.6003      0.00000
     23      11.1052      0.00000
     24      11.7444      0.00000

 k-point    76 :       0.4167    0.3333    0.3333
  band No.  band energies     occupation 
      1     -56.6987      1.00000
      2     -33.0179      1.00000
      3     -32.9989      1.00000
      4     -32.9986      1.00000
      5     -22.4244      1.00000
      6     -22.3465      1.00000
      7     -22.3056      1.00000
      8      -6.0061      1.00000
      9      -5.4741      1.00000
     10      -5.3734      1.00000
     11      -4.7364      1.00000
     12      -4.6624      1.00000
     13      -4.5717      1.00000
     14      -2.9568      1.00000
     15      -2.9212      1.00000
     16      -2.8532      1.00000
     17       5.0296      0.00000
     18       5.1315      0.00000
     19       5.1534      0.00000
     20       6.5754      0.00000
     21       6.8732      0.00000
     22       8.9899      0.00000
     23      10.7627      0.00000
     24      11.4973      0.00000

 k-point    77 :       0.5000    0.3333    0.3333
  band No.  band energies     occupation 
      1     -56.6986      1.00000
      2     -33.0247      1.00000
      3     -32.9988      1.00000
      4     -32.9985      1.00000
      5     -22.4179      1.00000
      6     -22.3460      1.00000
      7     -22.2854      1.00000
      8      -6.0604      1.00000
      9      -5.4964      1.00000
     10      -5.3700      1.00000
     11      -4.7731      1.00000
     12      -4.7009      1.00000
     13      -4.5720      1.00000
     14      -2.9526      1.00000
     15      -2.9018      1.00000
     16      -2.8347      1.00000
     17       5.0325      0.00000
     18       5.1743      0.00000
     19       5.1973      0.00000
     20       6.5756      0.00000
     21       6.9789      0.00000
     22       9.2082      0.00000
     23      10.5079      0.00000
     24      11.4738      0.00000

 k-point    78 :       0.4167    0.4167    0.3333
  band No.  band energies     occupation 
      1     -56.6985      1.00000
      2     -33.0176      1.00000
      3     -33.0175      1.00000
      4     -32.9984      1.00000
      5     -22.3911      1.00000
      6     -22.3105      1.00000
      7     -22.3010      1.00000
      8      -6.0993      1.00000
      9      -5.5559      1.00000
     10      -5.4110      1.00000
     11      -4.8180      1.00000
     12      -4.6918      1.00000
     13      -4.6804      1.00000
     14      -2.8958      1.00000
     15      -2.8880      1.00000
     16      -2.8001      1.00000
     17       5.1434      0.00000
     18       5.1520      0.00000
     19       5.2551      0.00000
     20       6.7190      0.00000
     21       7.0483      0.00000
     22       9.2587      0.00000
     23      10.9296      0.00000
     24      11.3439      0.00000

 k-point    79 :       0.5000    0.4167    0.3333
  band No.  band energies     occupation 
      1     -56.6984      1.00000
      2     -33.0244      1.00000
      3     -33.0174      1.00000
      4     -32.9983      1.00000
      5     -22.3857      1.00000
      6     -22.3057      1.00000
      7     -22.2843      1.00000
      8      -6.1438      1.00000
      9      -5.5860      1.00000
     10      -5.4125      1.00000
     11      -4.8543      1.00000
     12      -4.7251      1.00000
     13      -4.6857      1.00000
     14      -2.8883      1.00000
     15      -2.8708      1.00000
     16      -2.7761      1.00000
     17       5.1504      0.00000
     18       5.1916      0.00000
     19       5.2966      0.00000
     20       6.7382      0.00000
     21       7.1429      0.00000
     22       9.3868      0.00000
     23      10.9295      0.00000
     24      11.2864      0.00000

 k-point    80 :       0.5000    0.5000    0.3333
  band No.  band energies     occupation 
      1     -56.6982      1.00000
      2     -33.0242      1.00000
      3     -33.0242      1.00000
      4     -32.9982      1.00000
      5     -22.3805      1.00000
      6     -22.2838      1.00000
      7     -22.2838      1.00000
      8      -6.1843      1.00000
      9      -5.6197      1.00000
     10      -5.4156      1.00000
     11      -4.8906      1.00000
     12      -4.7246      1.00000
     13      -4.7246      1.00000
     14      -2.8673      1.00000
     15      -2.8673      1.00000
     16      -2.7498      1.00000
     17       5.1944      0.00000
     18       5.1944      0.00000
     19       5.3374      0.00000
     20       6.7675      0.00000
     21       7.2312      0.00000
     22       9.4650      0.00000
     23      11.1911      0.00000
     24      11.1911      0.00000

 k-point    81 :       0.4167    0.4167    0.4167
  band No.  band energies     occupation 
      1     -56.6982      1.00000
      2     -33.0173      1.00000
      3     -33.0171      1.00000
      4     -33.0171      1.00000
      5     -22.3289      1.00000
      6     -22.2998      1.00000
      7     -22.2998      1.00000
      8      -6.1808      1.00000
      9      -5.5530      1.00000
     10      -5.5530      1.00000
     11      -4.8223      1.00000
     12      -4.7937      1.00000
     13      -4.7937      1.00000
     14      -2.8143      1.00000
     15      -2.8143      1.00000
     16      -2.7892      1.00000
     17       5.2530      0.00000
     18       5.2650      0.00000
     19       5.2650      0.00000
     20       7.0492      0.00000
     21       7.0492      0.00000
     22       9.3695      0.00000
     23      11.1510      0.00000
     24      11.8929      0.00000

 k-point    82 :       0.5000    0.4167    0.4167
  band No.  band energies     occupation 
      1     -56.6981      1.00000
      2     -33.0240      1.00000
      3     -33.0171      1.00000
      4     -33.0170      1.00000
      5     -22.3186      1.00000
      6     -22.2993      1.00000
      7     -22.2829      1.00000
      8      -6.2199      1.00000
      9      -5.5941      1.00000
     10      -5.5519      1.00000
     11      -4.8520      1.00000
     12      -4.8324      1.00000
     13      -4.7998      1.00000
     14      -2.8057      1.00000
     15      -2.7874      1.00000
     16      -2.7698      1.00000
     17       5.2635      0.00000
     18       5.2991      0.00000
     19       5.3072      0.00000
     20       7.0495      0.00000
     21       7.1686      0.00000
     22       9.4100      0.00000
     23      11.3932      0.00000
     24      11.5821      0.00000

 k-point    83 :       0.5000    0.5000    0.4167
  band No.  band energies     occupation 
      1     -56.6980      1.00000
      2     -33.0239      1.00000
      3     -33.0239      1.00000
      4     -33.0169      1.00000
      5     -22.3086      1.00000
      6     -22.2825      1.00000
      7     -22.2825      1.00000
      8      -6.2564      1.00000
      9      -5.6184      1.00000
     10      -5.5711      1.00000
     11      -4.8812      1.00000
     12      -4.8388      1.00000
     13      -4.8388      1.00000
     14      -2.7783      1.00000
     15      -2.7783      1.00000
     16      -2.7490      1.00000
     17       5.3058      0.00000
     18       5.3058      0.00000
     19       5.3446      0.00000
     20       7.1083      0.00000
     21       7.2320      0.00000
     22       9.4162      0.00000
     23      11.7312      0.00000
     24      11.7312      0.00000

 k-point    84 :       0.5000    0.5000    0.5000
  band No.  band energies     occupation 
      1     -56.6979      1.00000
      2     -33.0238      1.00000
      3     -33.0238      1.00000
      4     -33.0238      1.00000
      5     -22.2823      1.00000
      6     -22.2823      1.00000
      7     -22.2823      1.00000
      8      -6.2909      1.00000
      9      -5.6180      1.00000
     10      -5.6180      1.00000
     11      -4.8777      1.00000
     12      -4.8777      1.00000
     13      -4.8777      1.00000
     14      -2.7486      1.00000
     15      -2.7486      1.00000
     16      -2.7486      1.00000
     17       5.3474      0.00000
     18       5.3474      0.00000
     19       5.3474      0.00000
     20       7.2322      0.00000
     21       7.2322      0.00000
     22       9.3975      0.00000
     23      12.1853      0.00000
     24      12.1853      0.00000


--------------------------------------------------------------------------------------------------------


 soft charge-density along one line, spin component           1
         0         1         2         3         4         5         6         7         8         9
 total charge-density along one line
 
 soft charge-density along one line, spin component           2
         0         1         2         3         4         5         6         7         8         9
 total charge-density along one line
 
 pseudopotential strength for first ion, spin component:           1
  8.425  -9.450  -0.000   0.000  -0.000   0.000  -0.000   0.000
 -9.450  10.584   0.000  -0.000   0.000  -0.000   0.000  -0.000
 -0.000   0.000 -12.245  -0.000  -0.000  13.785   0.000   0.000
  0.000  -0.000  -0.000 -12.382  -0.000   0.000  13.953   0.000
 -0.000   0.000  -0.000  -0.000 -12.245   0.000   0.000  13.785
  0.000  -0.000  13.785   0.000   0.000 -15.465  -0.000  -0.000
 -0.000   0.000   0.000  13.953   0.000  -0.000 -15.670  -0.000
  0.000  -0.000   0.000   0.000  13.785  -0.000  -0.000 -15.465
 pseudopotential strength for first ion, spin component:           2
  8.438  -9.466  -0.000   0.000  -0.000   0.000  -0.000   0.000
 -9.466  10.605   0.000  -0.000   0.000  -0.000   0.000  -0.000
 -0.000   0.000 -12.263  -0.000  -0.000  13.808   0.000   0.000
  0.000  -0.000  -0.000 -12.405  -0.000   0.000  13.982   0.000
 -0.000   0.000  -0.000  -0.000 -12.263   0.000   0.000  13.808
  0.000  -0.000  13.808   0.000   0.000 -15.494  -0.000  -0.000
 -0.000   0.000   0.000  13.982   0.000  -0.000 -15.707  -0.000
  0.000  -0.000   0.000   0.000  13.808  -0.000  -0.000 -15.494
 total augmentation occupancy for first ion, spin component:           1
  2.237   0.140   0.000   0.000   0.000   0.000   0.000   0.000
  0.140   0.014   0.000   0.000   0.000   0.000   0.000   0.000
  0.000   0.000   2.199   0.000   0.000   0.169  -0.000   0.000
  0.000   0.000   0.000   2.408   0.000   0.000   0.317  -0.000
  0.000   0.000   0.000   0.000   2.199   0.000  -0.000   0.169
  0.000   0.000   0.169  -0.000   0.000   0.017   0.000   0.000
  0.000   0.000   0.000   0.317   0.000  -0.000   0.051  -0.000
  0.000   0.000   0.000   0.000   0.169   0.000   0.000   0.017
 total augmentation occupancy for first ion, spin component:           2
  0.001   0.001   0.000   0.000   0.000   0.000   0.000   0.000
  0.001   0.000   0.000   0.000   0.000   0.000   0.000   0.000
  0.000   0.000  -0.008   0.000   0.000   0.002   0.000   0.000
  0.000   0.000   0.000  -0.001   0.000   0.000   0.006   0.000
  0.000   0.000   0.000   0.000  -0.008   0.000   0.000   0.002
  0.000   0.000   0.002   0.000   0.000   0.002   0.000   0.000
  0.000   0.000   0.000   0.006   0.000  -0.000   0.001   0.000
  0.000   0.000   0.000   0.000   0.002   0.000  -0.000   0.002


------------------------ aborting loop because EDIFF is reached ----------------------------------------


 


 total charge     
 
# of ion     s       p       d       tot
----------------------------------------
  1        1.728   4.486   0.000   6.214
  2        1.735   4.395   0.000   6.130
  3        1.742   4.276   0.000   6.018
  4        2.146   6.164   1.622   9.932
------------------------------------------------
tot        7.351  19.321   1.622  28.294
 


 magnetization (x)
 
# of ion     s       p       d       tot
----------------------------------------
  1       -0.001  -0.013   0.000  -0.014
  2       -0.001  -0.017   0.000  -0.018
  3       -0.001  -0.041   0.000  -0.042
  4        0.005   0.006   0.943   0.955
------------------------------------------------
tot        0.003  -0.065   0.943   0.881
 
    CHARGE:  cpu time    0.1030: real time    0.1032
    FORLOC:  cpu time    0.0010: real time    0.0009
    FORNL :  cpu time    0.2890: real time    0.2900
    STRESS:  cpu time    0.8669: real time    0.8700
    FORCOR:  cpu time    0.0170: real time    0.0181
    FORHAR:  cpu time    0.0030: real time    0.0028
    MIXING:  cpu time    0.0010: real time    0.0008
    OFIELD:  cpu time    0.0000: real time    0.0007

  FORCE on cell =-STRESS in cart. coord.  units (eV):
  Direction    XX          YY          ZZ          XY          YZ          ZX
  --------------------------------------------------------------------------------------
  Alpha Z    81.38126    81.38126    81.38126
  Ewald    -626.76532  -626.76532  -626.76532    -0.00000    -0.00000     0.00000
  Hartree   481.41165   481.41165   481.41165    -0.00000    -0.00000    -0.00000
  E(xc)    -183.55165  -183.55165  -183.55165     0.00000     0.00000     0.00000
  Local    -381.34872  -381.34872  -381.34872    -0.00000    -0.00000     0.00000
  n-local  -148.37356  -143.21373  -136.66742     0.07181     0.02186     0.04439
  augment   119.05542   119.05542   119.05542    -0.00000     0.00000     0.00000
  Kinetic   648.74023   654.22844   654.31956    -0.52911    -0.50561    -0.35158
  Fock        0.00000     0.00000     0.00000     0.00000     0.00000     0.00000
  -------------------------------------------------------------------------------------
  Total      -0.13952    -0.13952    -0.13952    -0.00000    -0.00000     0.00000
  in kB      -3.48635    -3.48635    -3.48635    -0.00000    -0.00000     0.00000
  external pressure =       -3.49 kB  Pullay stress =        0.00 kB


 VOLUME and BASIS-vectors are now :
 -----------------------------------------------------------------------------
  energy-cutoff  :      520.00
  volume of cell :       64.12
      direct lattice vectors                 reciprocal lattice vectors
     4.002457941  0.000000000  0.000000000     0.249846473  0.000000000  0.000000000
     0.000000000  4.002457941  0.000000000     0.000000000  0.249846473  0.000000000
     0.000000000  0.000000000  4.002457941     0.000000000  0.000000000  0.249846473

  length of vectors
     4.002457941  4.002457941  4.002457941     0.249846473  0.249846473  0.249846473


 FORCES acting on ions
    electron-ion (+dipol)            ewald-force                    non-local-force                 convergence-correction
 -----------------------------------------------------------------------------------------------
   -.750E-14 -.777E-14 0.168E-12   -.483E-15 0.238E-14 0.989E-14   0.000E+00 0.000E+00 0.000E+00   0.685E-14 0.101E-13 0.319E-12
   -.644E-14 0.195E-12 -.788E-14   0.537E-15 -.787E-14 -.146E-14   0.000E+00 0.000E+00 0.000E+00   0.970E-13 -.985E-14 -.213E-12
   0.192E-12 -.545E-14 0.455E-11   0.982E-14 -.162E-14 -.146E-14   0.000E+00 0.000E+00 0.000E+00   -.423E-14 0.870E-14 -.211E-12
   -.105E-13 -.144E-13 -.145E-13   -.108E-13 0.699E-14 -.667E-14   0.000E+00 0.000E+00 0.000E+00   0.717E-13 -.957E-14 -.709E-12
 -----------------------------------------------------------------------------------------------
   0.167E-12 0.167E-12 0.469E-11   -.921E-15 -.122E-15 0.299E-15   0.000E+00 0.000E+00 0.000E+00   0.171E-12 -.573E-15 -.813E-12
 
 
 POSITION                                       TOTAL-FORCE (eV/Angst)
 -----------------------------------------------------------------------------------
      0.00000      0.00000      2.00123         0.000000      0.000000      0.000000
      0.00000      2.00123      0.00000         0.000000      0.000000      0.000000
      2.00123      0.00000      0.00000         0.000000      0.000000      0.000000
      0.00000      0.00000      0.00000         0.000000      0.000000      0.000000
 -----------------------------------------------------------------------------------
    total drift:                                0.000000      0.000000      0.000000


--------------------------------------------------------------------------------------------------------



  FREE ENERGIE OF THE ION-ELECTRON SYSTEM (eV)
  ---------------------------------------------------
  free  energy   TOTEN  =       -23.86183495 eV

  energy  without entropy=      -23.85825474  energy(sigma->0) =      -23.86004485
 


--------------------------------------------------------------------------------------------------------


    POTLOK:  cpu time    0.0490: real time    0.0499


--------------------------------------------------------------------------------------------------------


     LOOP+:  cpu time   30.5634: real time   30.8577
    4ORBIT:  cpu time    0.0000: real time    0.0000
 


 total charge     
 
# of ion     s       p       d       tot
----------------------------------------
  1        1.728   4.486   0.000   6.214
  2        1.735   4.395   0.000   6.130
  3        1.742   4.276   0.000   6.018
  4        2.146   6.164   1.622   9.932
------------------------------------------------
tot        7.351  19.321   1.622  28.294
 


 magnetization (x)
 
# of ion     s       p       d       tot
----------------------------------------
  1       -0.001  -0.013   0.000  -0.014
  2       -0.001  -0.017   0.000  -0.018
  3       -0.001  -0.041   0.000  -0.042
  4        0.005   0.006   0.943   0.955
------------------------------------------------
tot        0.003  -0.065   0.943   0.881
 

 total amount of memory used by VASP on root node    48822. kBytes
========================================================================

   base      :      30000. kBytes
   nonl-proj :      10769. kBytes
   fftplans  :       1585. kBytes
   grid      :       1470. kBytes
   one-center:         31. kBytes
   wavefun   :       4967. kBytes
 
  
  
 General timing and accounting informations for this job:
 ========================================================
  
                  Total CPU time used (sec):       39.414
                            User time (sec):       33.222
                          System time (sec):        6.192
                         Elapsed time (sec):       39.927
  
                   Maximum memory used (kb):      125828.
                   Average memory used (kb):           0.
  
                          Minor page faults:        47285
                          Major page faults:            2
                 Voluntary context switches:         2372
