 vasp.5.4.1 24Jun15 (build Nov 23 2015 09:58:10) complex                        
  
 executed on             LinuxIFC date 2020.06.18  12:22:58
 running on   24 total cores
 distrk:  each k-point on   24 cores,    1 groups
 distr:  one band on NCORES_PER_BAND=   4 cores,    6 groups


--------------------------------------------------------------------------------------------------------


 INCAR:
 POTCAR:    PAW_PBE N 08Apr2002                   
 POTCAR:    PAW_PBE Th 07Sep2000                  
 POTCAR:    PAW_PBE N 08Apr2002                   
   VRHFIN =N: s2p3                                                              
   LEXCH  = PE                                                                  
   EATOM  =   264.5486 eV,   19.4438 Ry                                         
                                                                                
   TITEL  = PAW_PBE N 08Apr2002                                                 
   LULTRA =        F    use ultrasoft PP ?                                      
   IUNSCR =        1    unscreen: 0-lin 1-nonlin 2-no                           
   RPACOR =    1.200    partial core radius                                     
   POMASS =   14.001; ZVAL   =    5.000    mass and valenz                      
   RCORE  =    1.500    outmost cutoff radius                                   
   RWIGS  =    1.400; RWIGS  =    0.741    wigner-seitz radius (au A)           
   ENMAX  =  400.000; ENMIN  =  300.000 eV                                      
   ICORE  =        2    local potential                                         
   LCOR   =        T    correct aug charges                                     
   LPAW   =        T    paw PP                                                  
   EAUG   =  627.112                                                            
   DEXC   =    0.000                                                            
   RMAX   =    1.529    core radius for proj-oper                               
   RAUG   =    1.300    factor for augmentation sphere                          
   RDEP   =    1.514    radius for radial grids                                 
   RDEPT  =    1.338    core radius for aug-charge                              
                                                                                
   Atomic configuration                                                         
    4 entries                                                                   
     n  l   j            E        occ.                                          
     1  0  0.50      -384.7179   2.0000                                         
     2  0  0.50       -18.5828   2.0000                                         
     2  1  0.50        -7.0898   3.0000                                         
     3  2  1.50        -6.8029   0.0000                                         
   Description                                                                  
     l       E           TYP  RCUT    TYP  RCUT                                 
     0    -18.5828119     23  1.200                                             
     0    -13.5018863     23  1.200                                             
     1     -7.0897853     23  1.500                                             
     1      9.5240782     23  1.500                                             
     2     -6.8029130      7  1.500                                             
  local pseudopotential read in
  partial core-charges read in
  partial kinetic energy density read in
  atomic valenz-charges read in
  non local Contribution for L=           0  read in
    real space projection operators read in
  non local Contribution for L=           0  read in
    real space projection operators read in
  non local Contribution for L=           1  read in
    real space projection operators read in
  non local Contribution for L=           1  read in
    real space projection operators read in
    PAW grid and wavefunctions read in
 
   number of l-projection  operators is LMAX  =           4
   number of lm-projection operators is LMMAX =           8
 
 POTCAR:    PAW_PBE Th 07Sep2000                  
   VRHFIN =Th:  [Xe,5d,4f]                                                      
   LEXCH  = PE                                                                  
   EATOM  =   984.7553 eV,   72.3775 Ry                                         
                                                                                
   TITEL  = PAW_PBE Th 07Sep2000                                                
   LULTRA =        F    use ultrasoft PP ?                                      
   IUNSCR =        1    unscreen: 0-lin 1-nonlin 2-no                           
   RPACOR =    2.200    partial core radius                                     
   POMASS =  232.039; ZVAL   =   12.000    mass and valenz                      
   RCORE  =    2.800    outmost cutoff radius                                   
   RWIGS  =    3.000; RWIGS  =    1.588    wigner-seitz radius (au A)           
   ENMAX  =  247.306; ENMIN  =  185.480 eV                                      
   RCLOC  =    2.211    cutoff for local pot                                    
   LCOR   =        T    correct aug charges                                     
   LPAW   =        T    paw PP                                                  
   EAUG   =  535.431                                                            
   DEXC   =    0.000                                                            
   RMAX   =    2.862    core radius for proj-oper                               
   RAUG   =    1.300    factor for augmentation sphere                          
   RDEP   =    2.926    radius for radial grids                                 
   RDEPT  =    2.250    core radius for aug-charge                              
                                                                                
   Atomic configuration                                                         
   18 entries                                                                   
     n  l   j            E        occ.                                          
     1  0  0.50   -109990.1879   2.0000                                         
     2  0  0.50    -20388.0147   2.0000                                         
     2  1  1.50    -17049.6156   6.0000                                         
     3  0  0.50     -5106.5436   2.0000                                         
     3  1  1.50     -4175.1262   6.0000                                         
     3  2  2.50     -3342.8437  10.0000                                         
     4  0  0.50     -1280.8211   2.0000                                         
     4  1  1.50      -976.4859   6.0000                                         
     4  2  2.50      -661.8358  10.0000                                         
     4  3  3.50      -324.9124  14.0000                                         
     5  0  0.50      -278.7726   2.0000                                         
     5  1  1.50      -186.2212   6.0000                                         
     5  2  2.50       -86.9031  10.0000                                         
     6  0  0.50       -43.3059   2.0000                                         
     7  0  0.50        -4.0783   2.0000                                         
     6  1  1.50       -21.4071   6.0000                                         
     6  2  1.50        -2.3664   1.0000                                         
     5  3  2.50        -1.2804   1.0000                                         
   Description                                                                  
     l       E           TYP  RCUT    TYP  RCUT                                 
     0    -43.3059201     23  2.800                                             
     0     -4.0782900     23  2.800                                             
     1    -21.4071032     23  2.500                                             
     1    -22.7676858     23  2.500                                             
     2     -2.3664170     23  2.500                                             
     2      3.0546543     23  2.500                                             
     3     -1.2803910     23  2.800                                             
     3      0.1360583     23  2.800                                             
  local pseudopotential read in
  partial core-charges read in
  partial kinetic energy density read in
  atomic valenz-charges read in
  non local Contribution for L=           0  read in
    real space projection operators read in
  non local Contribution for L=           0  read in
    real space projection operators read in
  non local Contribution for L=           1  read in
    real space projection operators read in
  non local Contribution for L=           1  read in
    real space projection operators read in
  non local Contribution for L=           2  read in
    real space projection operators read in
  non local Contribution for L=           2  read in
    real space projection operators read in
  non local Contribution for L=           3  read in
    real space projection operators read in
  non local Contribution for L=           3  read in
    real space projection operators read in
    PAW grid and wavefunctions read in
 
   number of l-projection  operators is LMAX  =           8
   number of lm-projection operators is LMMAX =          32
 
  PAW_PBE N 08Apr2002                   :
 energy of atom  1       EATOM= -264.5486
 kinetic energy error for atom=    0.0125 (will be added to EATOM!!)
  PAW_PBE Th 07Sep2000                  :
 energy of atom  2       EATOM= -984.7553
 kinetic energy error for atom=    0.0010 (will be added to EATOM!!)
 
 
 POSCAR: N1 Th1                                  
  positions in direct lattice
  velocities in cartesian coordinates
 exchange correlation table for  LEXCH =        8
   RHO(1)=    0.500       N(1)  =     2000
   RHO(2)=  100.500       N(2)  =     4000
 


--------------------------------------------------------------------------------------------------------


 ion  position               nearest neighbor table
   1  0.500  0.500  0.500-   2 2.59   2 2.59   2 2.59   2 2.59   2 2.59   2 2.59
   2  0.000  0.000  0.000-   1 2.59   1 2.59   1 2.59   1 2.59   1 2.59   1 2.59
 
  LATTYP: Found a face centered cubic cell.
 ALAT       =     5.1748526897
  
  Lattice vectors:
  
 A1 = (   0.0000000000,   2.5874263448,   2.5874263448)
 A2 = (   2.5874263448,   0.0000000000,   2.5874263448)
 A3 = (   2.5874263448,   2.5874263448,   0.0000000000)


Analysis of symmetry for initial positions (statically):
=====================================================================
 Subroutine PRICEL returns:
 Original cell was already a primitive cell.
 

 Routine SETGRP: Setting up the symmetry group for a 
 face centered cubic supercell.


 Subroutine GETGRP returns: Found 48 space group operations
 (whereof 48 operations were pure point group operations)
 out of a pool of 48 trial point group operations.


The static configuration has the point symmetry O_h .


Analysis of symmetry for dynamics (positions and initial velocities):
=====================================================================
 Subroutine PRICEL returns:
 Original cell was already a primitive cell.
 

 Routine SETGRP: Setting up the symmetry group for a 
 face centered cubic supercell.


 Subroutine GETGRP returns: Found 48 space group operations
 (whereof 48 operations were pure point group operations)
 out of a pool of 48 trial point group operations.


The dynamic configuration has the point symmetry O_h .
 
 
 KPOINTS: K-Mesh                                  

Automatic generation of k-mesh.
Space group operators:
 irot       det(A)        alpha          n_x          n_y          n_z        tau_x        tau_y        tau_z
    1     1.000000     0.000000     1.000000     0.000000     0.000000     0.000000     0.000000     0.000000
    2    -1.000000     0.000000     1.000000     0.000000     0.000000     0.000000     0.000000     0.000000
    3     1.000000   120.000000    -0.577350    -0.577350    -0.577350     0.000000     0.000000     0.000000
    4    -1.000000   120.000000    -0.577350    -0.577350    -0.577350     0.000000     0.000000     0.000000
    5     1.000000   120.000000     0.577350     0.577350     0.577350     0.000000     0.000000     0.000000
    6    -1.000000   120.000000     0.577350     0.577350     0.577350     0.000000     0.000000     0.000000
    7     1.000000    90.000000     0.000000     0.000000    -1.000000     0.000000     0.000000     0.000000
    8    -1.000000    90.000000     0.000000     0.000000    -1.000000     0.000000     0.000000     0.000000
    9     1.000000   180.000000     0.000000     0.707107     0.707107     0.000000     0.000000     0.000000
   10    -1.000000   180.000000     0.000000     0.707107     0.707107     0.000000     0.000000     0.000000
   11     1.000000    90.000000     0.000000     1.000000     0.000000     0.000000     0.000000     0.000000
   12    -1.000000    90.000000     0.000000     1.000000     0.000000     0.000000     0.000000     0.000000
   13     1.000000   179.999999     0.000000     0.000000     1.000000     0.000000     0.000000     0.000000
   14    -1.000000   179.999999     0.000000     0.000000     1.000000     0.000000     0.000000     0.000000
   15     1.000000   120.000000    -0.577350     0.577350     0.577350     0.000000     0.000000     0.000000
   16    -1.000000   120.000000    -0.577350     0.577350     0.577350     0.000000     0.000000     0.000000
   17     1.000000   120.000000    -0.577350     0.577350    -0.577350     0.000000     0.000000     0.000000
   18    -1.000000   120.000000    -0.577350     0.577350    -0.577350     0.000000     0.000000     0.000000
   19     1.000000    90.000000     0.000000     0.000000     1.000000     0.000000     0.000000     0.000000
   20    -1.000000    90.000000     0.000000     0.000000     1.000000     0.000000     0.000000     0.000000
   21     1.000000    90.000000    -1.000000     0.000000     0.000000     0.000000     0.000000     0.000000
   22    -1.000000    90.000000    -1.000000     0.000000     0.000000     0.000000     0.000000     0.000000
   23     1.000000   180.000000     0.707107     0.000000     0.707107     0.000000     0.000000     0.000000
   24    -1.000000   180.000000     0.707107     0.000000     0.707107     0.000000     0.000000     0.000000
   25     1.000000   120.000000     0.577350    -0.577350     0.577350     0.000000     0.000000     0.000000
   26    -1.000000   120.000000     0.577350    -0.577350     0.577350     0.000000     0.000000     0.000000
   27     1.000000   120.000000    -0.577350    -0.577350     0.577350     0.000000     0.000000     0.000000
   28    -1.000000   120.000000    -0.577350    -0.577350     0.577350     0.000000     0.000000     0.000000
   29     1.000000   180.000000     1.000000     0.000000     0.000000     0.000000     0.000000     0.000000
   30    -1.000000   180.000000     1.000000     0.000000     0.000000     0.000000     0.000000     0.000000
   31     1.000000    90.000000     0.000000    -1.000000     0.000000     0.000000     0.000000     0.000000
   32    -1.000000    90.000000     0.000000    -1.000000     0.000000     0.000000     0.000000     0.000000
   33     1.000000   180.000000     0.707107     0.707107     0.000000     0.000000     0.000000     0.000000
   34    -1.000000   180.000000     0.707107     0.707107     0.000000     0.000000     0.000000     0.000000
   35     1.000000    90.000000     1.000000     0.000000     0.000000     0.000000     0.000000     0.000000
   36    -1.000000    90.000000     1.000000     0.000000     0.000000     0.000000     0.000000     0.000000
   37     1.000000   120.000000     0.577350    -0.577350    -0.577350     0.000000     0.000000     0.000000
   38    -1.000000   120.000000     0.577350    -0.577350    -0.577350     0.000000     0.000000     0.000000
   39     1.000000   180.000000     0.000000     1.000000     0.000000     0.000000     0.000000     0.000000
   40    -1.000000   180.000000     0.000000     1.000000     0.000000     0.000000     0.000000     0.000000
   41     1.000000   120.000000     0.577350     0.577350    -0.577350     0.000000     0.000000     0.000000
   42    -1.000000   120.000000     0.577350     0.577350    -0.577350     0.000000     0.000000     0.000000
   43     1.000000   180.000000     0.000000    -0.707107     0.707107     0.000000     0.000000     0.000000
   44    -1.000000   180.000000     0.000000    -0.707107     0.707107     0.000000     0.000000     0.000000
   45     1.000000   180.000000     0.707107    -0.707107     0.000000     0.000000     0.000000     0.000000
   46    -1.000000   180.000000     0.707107    -0.707107     0.000000     0.000000     0.000000     0.000000
   47     1.000000   180.000000     0.707107     0.000000    -0.707107     0.000000     0.000000     0.000000
   48    -1.000000   180.000000     0.707107     0.000000    -0.707107     0.000000     0.000000     0.000000
 
 Subroutine IBZKPT returns following result:
 ===========================================
 
 Found    220 irreducible k-points:
 
 Following reciprocal coordinates:
            Coordinates               Weight
  0.000000  0.000000  0.000000      1.000000
  0.052632  0.000000  0.000000      8.000000
  0.105263  0.000000  0.000000      8.000000
  0.157895  0.000000  0.000000      8.000000
  0.210526  0.000000  0.000000      8.000000
  0.263158  0.000000  0.000000      8.000000
  0.315789  0.000000  0.000000      8.000000
  0.368421  0.000000  0.000000      8.000000
  0.421053  0.000000  0.000000      8.000000
  0.473684  0.000000  0.000000      8.000000
  0.052632  0.052632  0.000000      6.000000
  0.105263  0.052632  0.000000     24.000000
  0.157895  0.052632  0.000000     24.000000
  0.210526  0.052632  0.000000     24.000000
  0.263158  0.052632  0.000000     24.000000
  0.315789  0.052632  0.000000     24.000000
  0.368421  0.052632  0.000000     24.000000
  0.421053  0.052632  0.000000     24.000000
  0.473684  0.052632  0.000000     24.000000
 -0.473684  0.052632  0.000000     24.000000
 -0.421053  0.052632  0.000000     24.000000
 -0.368421  0.052632  0.000000     24.000000
 -0.315789  0.052632  0.000000     24.000000
 -0.263158  0.052632  0.000000     24.000000
 -0.210526  0.052632  0.000000     24.000000
 -0.157895  0.052632  0.000000     24.000000
 -0.105263  0.052632  0.000000     24.000000
 -0.052632  0.052632  0.000000     12.000000
  0.105263  0.105263  0.000000      6.000000
  0.157895  0.105263  0.000000     24.000000
  0.210526  0.105263  0.000000     24.000000
  0.263158  0.105263  0.000000     24.000000
  0.315789  0.105263  0.000000     24.000000
  0.368421  0.105263  0.000000     24.000000
  0.421053  0.105263  0.000000     24.000000
  0.473684  0.105263  0.000000     24.000000
 -0.473684  0.105263  0.000000     24.000000
 -0.421053  0.105263  0.000000     24.000000
 -0.368421  0.105263  0.000000     24.000000
 -0.315789  0.105263  0.000000     24.000000
 -0.263158  0.105263  0.000000     24.000000
 -0.210526  0.105263  0.000000     24.000000
 -0.157895  0.105263  0.000000     24.000000
 -0.105263  0.105263  0.000000     12.000000
  0.157895  0.157895  0.000000      6.000000
  0.210526  0.157895  0.000000     24.000000
  0.263158  0.157895  0.000000     24.000000
  0.315789  0.157895  0.000000     24.000000
  0.368421  0.157895  0.000000     24.000000
  0.421053  0.157895  0.000000     24.000000
  0.473684  0.157895  0.000000     24.000000
 -0.473684  0.157895  0.000000     24.000000
 -0.421053  0.157895  0.000000     24.000000
 -0.368421  0.157895  0.000000     24.000000
 -0.315789  0.157895  0.000000     24.000000
 -0.263158  0.157895  0.000000     24.000000
 -0.210526  0.157895  0.000000     24.000000
 -0.157895  0.157895  0.000000     12.000000
  0.210526  0.210526  0.000000      6.000000
  0.263158  0.210526  0.000000     24.000000
  0.315789  0.210526  0.000000     24.000000
  0.368421  0.210526  0.000000     24.000000
  0.421053  0.210526  0.000000     24.000000
  0.473684  0.210526  0.000000     24.000000
 -0.473684  0.210526  0.000000     24.000000
 -0.421053  0.210526  0.000000     24.000000
 -0.368421  0.210526  0.000000     24.000000
 -0.315789  0.210526  0.000000     24.000000
 -0.263158  0.210526  0.000000     24.000000
 -0.210526  0.210526  0.000000     12.000000
  0.263158  0.263158  0.000000      6.000000
  0.315789  0.263158  0.000000     24.000000
  0.368421  0.263158  0.000000     24.000000
  0.421053  0.263158  0.000000     24.000000
  0.473684  0.263158  0.000000     24.000000
 -0.473684  0.263158  0.000000     24.000000
 -0.421053  0.263158  0.000000     24.000000
 -0.368421  0.263158  0.000000     24.000000
 -0.315789  0.263158  0.000000     24.000000
 -0.263158  0.263158  0.000000     12.000000
  0.315789  0.315789  0.000000      6.000000
  0.368421  0.315789  0.000000     24.000000
  0.421053  0.315789  0.000000     24.000000
  0.473684  0.315789  0.000000     24.000000
 -0.473684  0.315789  0.000000     24.000000
 -0.421053  0.315789  0.000000     24.000000
 -0.368421  0.315789  0.000000     24.000000
 -0.315789  0.315789  0.000000     12.000000
  0.368421  0.368421  0.000000      6.000000
  0.421053  0.368421  0.000000     24.000000
  0.473684  0.368421  0.000000     24.000000
 -0.473684  0.368421  0.000000     24.000000
 -0.421053  0.368421  0.000000     24.000000
 -0.368421  0.368421  0.000000     12.000000
  0.421053  0.421053  0.000000      6.000000
  0.473684  0.421053  0.000000     24.000000
 -0.473684  0.421053  0.000000     24.000000
 -0.421053  0.421053  0.000000     12.000000
  0.473684  0.473684  0.000000      6.000000
 -0.473684  0.473684  0.000000     12.000000
  0.157895  0.105263  0.052632     24.000000
  0.210526  0.105263  0.052632     48.000000
  0.263158  0.105263  0.052632     48.000000
  0.315789  0.105263  0.052632     48.000000
  0.368421  0.105263  0.052632     48.000000
  0.421053  0.105263  0.052632     48.000000
  0.473684  0.105263  0.052632     48.000000
 -0.473684  0.105263  0.052632     48.000000
  0.210526  0.157895  0.052632     24.000000
  0.263158  0.157895  0.052632     48.000000
  0.315789  0.157895  0.052632     48.000000
  0.368421  0.157895  0.052632     48.000000
  0.421053  0.157895  0.052632     48.000000
  0.473684  0.157895  0.052632     48.000000
 -0.473684  0.157895  0.052632     48.000000
 -0.421053  0.157895  0.052632     48.000000
 -0.368421  0.157895  0.052632     48.000000
 -0.315789  0.157895  0.052632     48.000000
 -0.263158  0.157895  0.052632     48.000000
 -0.210526  0.157895  0.052632     48.000000
 -0.157895  0.157895  0.052632     48.000000
 -0.105263  0.157895  0.052632     24.000000
  0.263158  0.210526  0.052632     24.000000
  0.315789  0.210526  0.052632     48.000000
  0.368421  0.210526  0.052632     48.000000
  0.421053  0.210526  0.052632     48.000000
  0.473684  0.210526  0.052632     48.000000
 -0.473684  0.210526  0.052632     48.000000
 -0.421053  0.210526  0.052632     48.000000
 -0.368421  0.210526  0.052632     48.000000
 -0.315789  0.210526  0.052632     48.000000
 -0.263158  0.210526  0.052632     48.000000
 -0.210526  0.210526  0.052632     48.000000
 -0.157895  0.210526  0.052632     24.000000
  0.315789  0.263158  0.052632     24.000000
  0.368421  0.263158  0.052632     48.000000
  0.421053  0.263158  0.052632     48.000000
  0.473684  0.263158  0.052632     48.000000
 -0.473684  0.263158  0.052632     48.000000
 -0.421053  0.263158  0.052632     48.000000
 -0.368421  0.263158  0.052632     48.000000
 -0.315789  0.263158  0.052632     48.000000
 -0.263158  0.263158  0.052632     48.000000
 -0.210526  0.263158  0.052632     24.000000
  0.368421  0.315789  0.052632     24.000000
  0.421053  0.315789  0.052632     48.000000
  0.473684  0.315789  0.052632     48.000000
 -0.473684  0.315789  0.052632     48.000000
 -0.421053  0.315789  0.052632     48.000000
 -0.368421  0.315789  0.052632     48.000000
 -0.315789  0.315789  0.052632     48.000000
 -0.263158  0.315789  0.052632     24.000000
  0.421053  0.368421  0.052632     24.000000
  0.473684  0.368421  0.052632     48.000000
 -0.473684  0.368421  0.052632     48.000000
 -0.421053  0.368421  0.052632     48.000000
 -0.368421  0.368421  0.052632     48.000000
 -0.315789  0.368421  0.052632     24.000000
  0.473684  0.421053  0.052632     24.000000
 -0.473684  0.421053  0.052632     48.000000
 -0.421053  0.421053  0.052632     48.000000
 -0.368421  0.421053  0.052632     24.000000
 -0.473684  0.473684  0.052632     24.000000
 -0.421053  0.473684  0.052632     24.000000
  0.315789  0.210526  0.105263     24.000000
  0.368421  0.210526  0.105263     48.000000
  0.421053  0.210526  0.105263     48.000000
  0.473684  0.210526  0.105263     48.000000
 -0.473684  0.210526  0.105263     48.000000
 -0.421053  0.210526  0.105263     48.000000
  0.368421  0.263158  0.105263     24.000000
  0.421053  0.263158  0.105263     48.000000
  0.473684  0.263158  0.105263     48.000000
 -0.473684  0.263158  0.105263     48.000000
 -0.421053  0.263158  0.105263     48.000000
 -0.368421  0.263158  0.105263     48.000000
 -0.315789  0.263158  0.105263     48.000000
 -0.263158  0.263158  0.105263     48.000000
 -0.210526  0.263158  0.105263     48.000000
 -0.157895  0.263158  0.105263     24.000000
  0.421053  0.315789  0.105263     24.000000
  0.473684  0.315789  0.105263     48.000000
 -0.473684  0.315789  0.105263     48.000000
 -0.421053  0.315789  0.105263     48.000000
 -0.368421  0.315789  0.105263     48.000000
 -0.315789  0.315789  0.105263     48.000000
 -0.263158  0.315789  0.105263     48.000000
 -0.210526  0.315789  0.105263     24.000000
  0.473684  0.368421  0.105263     24.000000
 -0.473684  0.368421  0.105263     48.000000
 -0.421053  0.368421  0.105263     48.000000
 -0.368421  0.368421  0.105263     48.000000
 -0.315789  0.368421  0.105263     48.000000
 -0.263158  0.368421  0.105263     24.000000
 -0.473684  0.421053  0.105263     24.000000
 -0.421053  0.421053  0.105263     48.000000
 -0.368421  0.421053  0.105263     48.000000
 -0.315789  0.421053  0.105263     24.000000
 -0.421053  0.473684  0.105263     24.000000
 -0.368421  0.473684  0.105263     24.000000
  0.473684  0.315789  0.157895     24.000000
 -0.473684  0.315789  0.157895     48.000000
 -0.421053  0.315789  0.157895     48.000000
 -0.368421  0.315789  0.157895     48.000000
 -0.473684  0.368421  0.157895     24.000000
 -0.421053  0.368421  0.157895     48.000000
 -0.368421  0.368421  0.157895     48.000000
 -0.315789  0.368421  0.157895     48.000000
 -0.263158  0.368421  0.157895     48.000000
 -0.210526  0.368421  0.157895     24.000000
 -0.421053  0.421053  0.157895     24.000000
 -0.368421  0.421053  0.157895     48.000000
 -0.315789  0.421053  0.157895     48.000000
 -0.263158  0.421053  0.157895     24.000000
 -0.368421  0.473684  0.157895     24.000000
 -0.315789  0.473684  0.157895     24.000000
 -0.368421  0.421053  0.210526     24.000000
 -0.315789  0.421053  0.210526     48.000000
 -0.315789  0.473684  0.210526     24.000000
 -0.263158  0.473684  0.210526     24.000000
 
 Following cartesian coordinates:
            Coordinates               Weight
  0.000000  0.000000  0.000000      1.000000
 -0.010171  0.010171  0.010171      8.000000
 -0.020341  0.020341  0.020341      8.000000
 -0.030512  0.030512  0.030512      8.000000
 -0.040683  0.040683  0.040683      8.000000
 -0.050853  0.050853  0.050853      8.000000
 -0.061024  0.061024  0.061024      8.000000
 -0.071195  0.071195  0.071195      8.000000
 -0.081365  0.081365  0.081365      8.000000
 -0.091536  0.091536  0.091536      8.000000
  0.000000  0.000000  0.020341      6.000000
 -0.010171  0.010171  0.030512     24.000000
 -0.020341  0.020341  0.040683     24.000000
 -0.030512  0.030512  0.050853     24.000000
 -0.040683  0.040683  0.061024     24.000000
 -0.050853  0.050853  0.071195     24.000000
 -0.061024  0.061024  0.081365     24.000000
 -0.071195  0.071195  0.091536     24.000000
 -0.081365  0.081365  0.101706     24.000000
  0.101706 -0.101706 -0.081365     24.000000
  0.091536 -0.091536 -0.071195     24.000000
  0.081365 -0.081365 -0.061024     24.000000
  0.071195 -0.071195 -0.050853     24.000000
  0.061024 -0.061024 -0.040683     24.000000
  0.050853 -0.050853 -0.030512     24.000000
  0.040683 -0.040683 -0.020341     24.000000
  0.030512 -0.030512 -0.010171     24.000000
  0.020341 -0.020341  0.000000     12.000000
  0.000000  0.000000  0.040683      6.000000
 -0.010171  0.010171  0.050853     24.000000
 -0.020341  0.020341  0.061024     24.000000
 -0.030512  0.030512  0.071195     24.000000
 -0.040683  0.040683  0.081365     24.000000
 -0.050853  0.050853  0.091536     24.000000
 -0.061024  0.061024  0.101706     24.000000
 -0.071195  0.071195  0.111877     24.000000
  0.111877 -0.111877 -0.071195     24.000000
  0.101706 -0.101706 -0.061024     24.000000
  0.091536 -0.091536 -0.050853     24.000000
  0.081365 -0.081365 -0.040683     24.000000
  0.071195 -0.071195 -0.030512     24.000000
  0.061024 -0.061024 -0.020341     24.000000
  0.050853 -0.050853 -0.010171     24.000000
  0.040683 -0.040683  0.000000     12.000000
  0.000000  0.000000  0.061024      6.000000
 -0.010171  0.010171  0.071195     24.000000
 -0.020341  0.020341  0.081365     24.000000
 -0.030512  0.030512  0.091536     24.000000
 -0.040683  0.040683  0.101706     24.000000
 -0.050853  0.050853  0.111877     24.000000
 -0.061024  0.061024  0.122048     24.000000
  0.122048 -0.122048 -0.061024     24.000000
  0.111877 -0.111877 -0.050853     24.000000
  0.101706 -0.101706 -0.040683     24.000000
  0.091536 -0.091536 -0.030512     24.000000
  0.081365 -0.081365 -0.020341     24.000000
  0.071195 -0.071195 -0.010171     24.000000
  0.061024 -0.061024  0.000000     12.000000
  0.000000  0.000000  0.081365      6.000000
 -0.010171  0.010171  0.091536     24.000000
 -0.020341  0.020341  0.101706     24.000000
 -0.030512  0.030512  0.111877     24.000000
 -0.040683  0.040683  0.122048     24.000000
 -0.050853  0.050853  0.132218     24.000000
  0.132218 -0.132218 -0.050853     24.000000
  0.122048 -0.122048 -0.040683     24.000000
  0.111877 -0.111877 -0.030512     24.000000
  0.101706 -0.101706 -0.020341     24.000000
  0.091536 -0.091536 -0.010171     24.000000
  0.081365 -0.081365  0.000000     12.000000
  0.000000  0.000000  0.101706      6.000000
 -0.010171  0.010171  0.111877     24.000000
 -0.020341  0.020341  0.122048     24.000000
 -0.030512  0.030512  0.132218     24.000000
 -0.040683  0.040683  0.142389     24.000000
  0.142389 -0.142389 -0.040683     24.000000
  0.132218 -0.132218 -0.030512     24.000000
  0.122048 -0.122048 -0.020341     24.000000
  0.111877 -0.111877 -0.010171     24.000000
  0.101706 -0.101706  0.000000     12.000000
  0.000000  0.000000  0.122048      6.000000
 -0.010171  0.010171  0.132218     24.000000
 -0.020341  0.020341  0.142389     24.000000
 -0.030512  0.030512  0.152560     24.000000
  0.152560 -0.152560 -0.030512     24.000000
  0.142389 -0.142389 -0.020341     24.000000
  0.132218 -0.132218 -0.010171     24.000000
  0.122048 -0.122048  0.000000     12.000000
  0.000000  0.000000  0.142389      6.000000
 -0.010171  0.010171  0.152560     24.000000
 -0.020341  0.020341  0.162730     24.000000
  0.162730 -0.162730 -0.020341     24.000000
  0.152560 -0.152560 -0.010171     24.000000
  0.142389 -0.142389  0.000000     12.000000
  0.000000  0.000000  0.162730      6.000000
 -0.010171  0.010171  0.172901     24.000000
  0.172901 -0.172901 -0.010171     24.000000
  0.162730 -0.162730  0.000000     12.000000
  0.000000  0.000000  0.183072      6.000000
  0.183072 -0.183072  0.000000     12.000000
  0.000000  0.020341  0.040683     24.000000
 -0.010171  0.030512  0.050853     48.000000
 -0.020341  0.040683  0.061024     48.000000
 -0.030512  0.050853  0.071195     48.000000
 -0.040683  0.061024  0.081365     48.000000
 -0.050853  0.071195  0.091536     48.000000
 -0.061024  0.081365  0.101706     48.000000
  0.122048 -0.101706 -0.081365     48.000000
  0.000000  0.020341  0.061024     24.000000
 -0.010171  0.030512  0.071195     48.000000
 -0.020341  0.040683  0.081365     48.000000
 -0.030512  0.050853  0.091536     48.000000
 -0.040683  0.061024  0.101706     48.000000
 -0.050853  0.071195  0.111877     48.000000
  0.132218 -0.111877 -0.071195     48.000000
  0.122048 -0.101706 -0.061024     48.000000
  0.111877 -0.091536 -0.050853     48.000000
  0.101706 -0.081365 -0.040683     48.000000
  0.091536 -0.071195 -0.030512     48.000000
  0.081365 -0.061024 -0.020341     48.000000
  0.071195 -0.050853 -0.010171     48.000000
  0.061024 -0.040683  0.000000     24.000000
 -0.000000  0.020341  0.081365     24.000000
 -0.010171  0.030512  0.091536     48.000000
 -0.020341  0.040683  0.101706     48.000000
 -0.030512  0.050853  0.111877     48.000000
 -0.040683  0.061024  0.122048     48.000000
  0.142389 -0.122048 -0.061024     48.000000
  0.132218 -0.111877 -0.050853     48.000000
  0.122048 -0.101706 -0.040683     48.000000
  0.111877 -0.091536 -0.030512     48.000000
  0.101706 -0.081365 -0.020341     48.000000
  0.091536 -0.071195 -0.010171     48.000000
  0.081365 -0.061024  0.000000     24.000000
  0.000000  0.020341  0.101706     24.000000
 -0.010171  0.030512  0.111877     48.000000
 -0.020341  0.040683  0.122048     48.000000
 -0.030512  0.050853  0.132218     48.000000
  0.152560 -0.132218 -0.050853     48.000000
  0.142389 -0.122048 -0.040683     48.000000
  0.132218 -0.111877 -0.030512     48.000000
  0.122048 -0.101706 -0.020341     48.000000
  0.111877 -0.091536 -0.010171     48.000000
  0.101706 -0.081365  0.000000     24.000000
  0.000000  0.020341  0.122048     24.000000
 -0.010171  0.030512  0.132218     48.000000
 -0.020341  0.040683  0.142389     48.000000
  0.162730 -0.142389 -0.040683     48.000000
  0.152560 -0.132218 -0.030512     48.000000
  0.142389 -0.122048 -0.020341     48.000000
  0.132218 -0.111877 -0.010171     48.000000
  0.122048 -0.101706  0.000000     24.000000
 -0.000000  0.020341  0.142389     24.000000
 -0.010171  0.030512  0.152560     48.000000
  0.172901 -0.152560 -0.030512     48.000000
  0.162730 -0.142389 -0.020341     48.000000
  0.152560 -0.132218 -0.010171     48.000000
  0.142389 -0.122048  0.000000     24.000000
  0.000000  0.020341  0.162730     24.000000
  0.183072 -0.162730 -0.020341     48.000000
  0.172901 -0.152560 -0.010171     48.000000
  0.162730 -0.142389  0.000000     24.000000
  0.193242 -0.172901 -0.010171     24.000000
  0.183072 -0.162730  0.000000     24.000000
  0.000000  0.040683  0.081365     24.000000
 -0.010171  0.050853  0.091536     48.000000
 -0.020341  0.061024  0.101706     48.000000
 -0.030512  0.071195  0.111877     48.000000
  0.152560 -0.111877 -0.071195     48.000000
  0.142389 -0.101706 -0.061024     48.000000
  0.000000  0.040683  0.101706     24.000000
 -0.010171  0.050853  0.111877     48.000000
 -0.020341  0.061024  0.122048     48.000000
  0.162730 -0.122048 -0.061024     48.000000
  0.152560 -0.111877 -0.050853     48.000000
  0.142389 -0.101706 -0.040683     48.000000
  0.132218 -0.091536 -0.030512     48.000000
  0.122048 -0.081365 -0.020341     48.000000
  0.111877 -0.071195 -0.010171     48.000000
  0.101706 -0.061024  0.000000     24.000000
  0.000000  0.040683  0.122048     24.000000
 -0.010171  0.050853  0.132218     48.000000
  0.172901 -0.132218 -0.050853     48.000000
  0.162730 -0.122048 -0.040683     48.000000
  0.152560 -0.111877 -0.030512     48.000000
  0.142389 -0.101706 -0.020341     48.000000
  0.132218 -0.091536 -0.010171     48.000000
  0.122048 -0.081365  0.000000     24.000000
  0.000000  0.040683  0.142389     24.000000
  0.183072 -0.142389 -0.040683     48.000000
  0.172901 -0.132218 -0.030512     48.000000
  0.162730 -0.122048 -0.020341     48.000000
  0.152560 -0.111877 -0.010171     48.000000
  0.142389 -0.101706  0.000000     24.000000
  0.193242 -0.152560 -0.030512     24.000000
  0.183072 -0.142389 -0.020341     48.000000
  0.172901 -0.132218 -0.010171     48.000000
  0.162730 -0.122048  0.000000     24.000000
  0.193242 -0.152560 -0.010171     24.000000
  0.183072 -0.142389  0.000000     24.000000
  0.000000  0.061024  0.122048     24.000000
  0.183072 -0.122048 -0.061024     48.000000
  0.172901 -0.111877 -0.050853     48.000000
  0.162730 -0.101706 -0.040683     48.000000
  0.193242 -0.132218 -0.050853     24.000000
  0.183072 -0.122048 -0.040683     48.000000
  0.172901 -0.111877 -0.030512     48.000000
  0.162730 -0.101706 -0.020341     48.000000
  0.152560 -0.091536 -0.010171     48.000000
  0.142389 -0.081365  0.000000     24.000000
  0.193242 -0.132218 -0.030512     24.000000
  0.183072 -0.122048 -0.020341     48.000000
  0.172901 -0.111877 -0.010171     48.000000
  0.162730 -0.101706  0.000000     24.000000
  0.193242 -0.132218 -0.010171     24.000000
  0.183072 -0.122048  0.000000     24.000000
  0.193242 -0.111877 -0.030512     24.000000
  0.183072 -0.101706 -0.020341     48.000000
  0.193242 -0.111877 -0.010171     24.000000
  0.183072 -0.101706  0.000000     24.000000
 


--------------------------------------------------------------------------------------------------------




 Dimension of arrays:
   k-points           NKPTS =    220   k-points in BZ     NKDIM =    220   number of bands    NBANDS=     12
   number of dos      NEDOS =    301   number of ions     NIONS =      2
   non local maximal  LDIM  =      8   non local SUM 2l+1 LMDIM =     32
   total plane-waves  NPLWV =  21952
   max r-space proj   IRMAX =      1   max aug-charges    IRDMAX= 301557
   dimension x,y,z NGX =    28 NGY =   28 NGZ =   28
   dimension x,y,z NGXF=    56 NGYF=   56 NGZF=   56
   support grid    NGXF=   112 NGYF=  112 NGZF=  112
   ions per type =               1   1
 NGX,Y,Z   is equivalent  to a cutoff of  12.72, 12.72, 12.72 a.u.
 NGXF,Y,Z  is equivalent  to a cutoff of  25.44, 25.44, 25.44 a.u.


 I would recommend the setting:
   dimension x,y,z NGX =    27 NGY =   27 NGZ =   27
 SYSTEM =  matgen-scf                              
 POSCAR =  N1 Th1                                  

 Startparameter for this run:
   NWRITE =      2    write-flag & timer
   PREC   = accura    normal or accurate (medium, high low for compatibility)
   ISTART =      0    job   : 0-new  1-cont  2-samecut
   ICHARG =      2    charge: 1-file 2-atom 10-const
   ISPIN  =      1    spin polarized calculation?
   LNONCOLLINEAR =      F non collinear calculations
   LSORBIT =      F    spin-orbit coupling
   INIWAV =      1    electr: 0-lowe 1-rand  2-diag
   LASPH  =      F    aspherical Exc in radial PAW
   METAGGA=      F    non-selfconsistent MetaGGA calc.

 Electronic Relaxation 1
   ENCUT  =  520.0 eV  38.22 Ry    6.18 a.u.   6.80  6.80  6.80*2*pi/ulx,y,z
   ENINI  =  520.0     initial cutoff
   ENAUG  =  627.1 eV  augmentation charge cutoff
   NELM   =    140;   NELMIN=  6; NELMDL= -5     # of ELM steps 
   EDIFF  = 0.1E-03   stopping-criterion for ELM
   LREAL  =      F    real-space projection
   NLSPLINE    = F    spline interpolate recip. space projectors
   LCOMPAT=      F    compatible to vasp.4.4
   GGA_COMPAT  = T    GGA compatible to vasp.4.4-vasp.4.6
   LMAXPAW     = -100 max onsite density
   LMAXMIX     =    2 max onsite mixed and CHGCAR
   VOSKOWN=      0    Vosko Wilk Nusair interpolation
   ROPT   =    0.00000   0.00000
 Ionic relaxation
   EDIFFG = -.1E-01   stopping-criterion for IOM
   NSW    =      0    number of steps for IOM
   NBLOCK =      1;   KBLOCK =      1    inner block; outer block 
   IBRION =     -1    ionic relax: 0-MD 1-quasi-New 2-CG
   NFREE  =      0    steps in history (QN), initial steepest desc. (CG)
   ISIF   =      2    stress and relaxation
   IWAVPR =     10    prediction:  0-non 1-charg 2-wave 3-comb
   ISYM   =      2    0-nonsym 1-usesym 2-fastsym
   LCORR  =      T    Harris-Foulkes like correction to forces

   POTIM  = 0.0500    time-step for ionic-motion
   TEIN   =    0.0    initial temperature
   TEBEG  =    0.0;   TEEND  =   0.0 temperature during run
   SMASS  =  -3.00    Nose mass-parameter (am)
   estimated Nose-frequenzy (Omega)   =  0.10E-29 period in steps =****** mass=  -0.306E-27a.u.
   SCALEE = 1.0000    scale energy and forces
   NPACO  =    256;   APACO  = 16.0  distance and # of slots for P.C.
   PSTRESS=    0.0 pullay stress

  Mass of Ions in am
   POMASS =  14.00232.04
  Ionic Valenz
   ZVAL   =   5.00 12.00
  Atomic Wigner-Seitz radii
   RWIGS  =  -1.00 -1.00
  virtual crystal weights 
   VCA    =   1.00  1.00
   NELECT =      17.0000    total number of electrons
   NUPDOWN=      -1.0000    fix difference up-down

 DOS related values:
   EMIN   =  10.00;   EMAX   =-10.00  energy-range for DOS
   EFERMI =   0.00
   ISMEAR =     0;   SIGMA  =   0.05  broadening in eV -4-tet -1-fermi 0-gaus

 Electronic relaxation 2 (details)
   IALGO  =     38    algorithm
   LDIAG  =      T    sub-space diagonalisation (order eigenvalues)
   LSUBROT=      F    optimize rotation matrix (better conditioning)
   TURBO    =      0    0=normal 1=particle mesh
   IRESTART =      0    0=no restart 2=restart with 2 vectors
   NREBOOT  =      0    no. of reboots
   NMIN     =      0    reboot dimension
   EREF     =   0.00    reference energy to select bands
   IMIX   =      4    mixing-type and parameters
     AMIX     =   0.10;   BMIX     =  1.20
     AMIX_MAG =   0.40;   BMIX_MAG =  1.20
     AMIN     =   0.10
     WC   =   100.;   INIMIX=   1;  MIXPRE=   1;  MAXMIX= -45

 Intra band minimization:
   WEIMIN = 0.0000     energy-eigenvalue tresh-hold
   EBREAK =  0.21E-05  absolut break condition
   DEPER  =   0.30     relativ break condition  

   TIME   =   0.40     timestep for ELM

  volume/ion in A,a.u.               =      17.32       116.90
  Fermi-wavevector in a.u.,A,eV,Ry     =   1.291258  2.440124 22.685649  1.667348
  Thomas-Fermi vector in A             =   2.423039
 
 Write flags
   LWAVE  =      F    write WAVECAR
   LCHARG =      T    write CHGCAR
   LVTOT  =      F    write LOCPOT, total local potential
   LVHAR  =      F    write LOCPOT, Hartree potential only
   LELF   =      F    write electronic localiz. function (ELF)
   LORBIT =     11    0 simple, 1 ext, 2 COOP (PROOUT)


 Dipole corrections
   LMONO  =      F    monopole corrections only (constant potential shift)
   LDIPOL =      F    correct potential (dipole corrections)
   IDIPOL =      0    1-x, 2-y, 3-z, 4-all directions 
   EPSILON=  1.0000000 bulk dielectric constant

 Exchange correlation treatment:
   GGA     =    --    GGA type
   LEXCH   =     8    internal setting for exchange type
   VOSKOWN=      0    Vosko Wilk Nusair interpolation
   LHFCALC =     F    Hartree Fock is set to
   LHFONE  =     F    Hartree Fock one center treatment
   AEXX    =    0.0000 exact exchange contribution

 Linear response parameters
   LEPSILON=     F    determine dielectric tensor
   LRPA    =     F    only Hartree local field effects (RPA)
   LNABLA  =     F    use nabla operator in PAW spheres
   LVEL    =     F    velocity operator in full k-point grid
   LINTERFAST=   F  fast interpolation
   KINTER  =     0    interpolate to denser k-point grid
   CSHIFT  =0.1000    complex shift for real part using Kramers Kronig
   OMEGAMAX=  -1.0    maximum frequency
   DEG_THRESHOLD= 0.2000000E-02 threshold for treating states as degnerate
   RTIME   =    0.100 relaxation time in fs

 Orbital magnetization related:
   ORBITALMAG=     F  switch on orbital magnetization
   LCHIMAG   =     F  perturbation theory with respect to B field
   DQ        =  0.001000  dq finite difference perturbation B field



--------------------------------------------------------------------------------------------------------


 Static calculation
 charge density and potential will be updated during run
 non-spin polarized calculation
 Variant of blocked Davidson
 Davidson routine will perform the subspace rotation
 perform sub-space diagonalisation
    after iterative eigenvector-optimisation
 modified Broyden-mixing scheme, WC =      100.0
 initial mixing is a Kerker type mixing with AMIX =  0.1000 and BMIX =      1.2000
 Hartree-type preconditioning will be used
 using additional bands            3
 reciprocal scheme for non local part
 use partial core corrections
 calculate Harris-corrections to forces 
   (improved forces if not selfconsistent)
 use gradient corrections 
 use of overlap-Matrix (Vanderbilt PP)
 Gauss-broadening in eV      SIGMA  =   0.05


--------------------------------------------------------------------------------------------------------


  energy-cutoff  :      520.00
  volume of cell :       34.64
      direct lattice vectors                 reciprocal lattice vectors
     0.000000000  2.587426345  2.587426345    -0.193242216  0.193242216  0.193242216
     2.587426345  0.000000000  2.587426345     0.193242216 -0.193242216  0.193242216
     2.587426345  2.587426345  0.000000000     0.193242216  0.193242216 -0.193242216

  length of vectors
     3.659173429  3.659173429  3.659173429     0.334705336  0.334705336  0.334705336


 
 k-points in units of 2pi/SCALE and weight: K-Mesh                                  
   0.00000000  0.00000000  0.00000000       0.000
  -0.01017064  0.01017064  0.01017064       0.001
  -0.02034129  0.02034129  0.02034129       0.001
  -0.03051193  0.03051193  0.03051193       0.001
  -0.04068257  0.04068257  0.04068257       0.001
  -0.05085321  0.05085321  0.05085321       0.001
  -0.06102386  0.06102386  0.06102386       0.001
  -0.07119450  0.07119450  0.07119450       0.001
  -0.08136514  0.08136514  0.08136514       0.001
  -0.09153579  0.09153579  0.09153579       0.001
   0.00000000  0.00000000  0.02034129       0.001
  -0.01017064  0.01017064  0.03051193       0.003
  -0.02034129  0.02034129  0.04068257       0.003
  -0.03051193  0.03051193  0.05085321       0.003
  -0.04068257  0.04068257  0.06102386       0.003
  -0.05085321  0.05085321  0.07119450       0.003
  -0.06102386  0.06102386  0.08136514       0.003
  -0.07119450  0.07119450  0.09153579       0.003
  -0.08136514  0.08136514  0.10170643       0.003
   0.10170643 -0.10170643 -0.08136514       0.003
   0.09153579 -0.09153579 -0.07119450       0.003
   0.08136514 -0.08136514 -0.06102386       0.003
   0.07119450 -0.07119450 -0.05085321       0.003
   0.06102386 -0.06102386 -0.04068257       0.003
   0.05085321 -0.05085321 -0.03051193       0.003
   0.04068257 -0.04068257 -0.02034129       0.003
   0.03051193 -0.03051193 -0.01017064       0.003
   0.02034129 -0.02034129  0.00000000       0.002
   0.00000000  0.00000000  0.04068257       0.001
  -0.01017064  0.01017064  0.05085321       0.003
  -0.02034129  0.02034129  0.06102386       0.003
  -0.03051193  0.03051193  0.07119450       0.003
  -0.04068257  0.04068257  0.08136514       0.003
  -0.05085321  0.05085321  0.09153579       0.003
  -0.06102386  0.06102386  0.10170643       0.003
  -0.07119450  0.07119450  0.11187707       0.003
   0.11187707 -0.11187707 -0.07119450       0.003
   0.10170643 -0.10170643 -0.06102386       0.003
   0.09153579 -0.09153579 -0.05085321       0.003
   0.08136514 -0.08136514 -0.04068257       0.003
   0.07119450 -0.07119450 -0.03051193       0.003
   0.06102386 -0.06102386 -0.02034129       0.003
   0.05085321 -0.05085321 -0.01017064       0.003
   0.04068257 -0.04068257  0.00000000       0.002
   0.00000000  0.00000000  0.06102386       0.001
  -0.01017064  0.01017064  0.07119450       0.003
  -0.02034129  0.02034129  0.08136514       0.003
  -0.03051193  0.03051193  0.09153579       0.003
  -0.04068257  0.04068257  0.10170643       0.003
  -0.05085321  0.05085321  0.11187707       0.003
  -0.06102386  0.06102386  0.12204772       0.003
   0.12204772 -0.12204772 -0.06102386       0.003
   0.11187707 -0.11187707 -0.05085321       0.003
   0.10170643 -0.10170643 -0.04068257       0.003
   0.09153579 -0.09153579 -0.03051193       0.003
   0.08136514 -0.08136514 -0.02034129       0.003
   0.07119450 -0.07119450 -0.01017064       0.003
   0.06102386 -0.06102386  0.00000000       0.002
   0.00000000  0.00000000  0.08136514       0.001
  -0.01017064  0.01017064  0.09153579       0.003
  -0.02034129  0.02034129  0.10170643       0.003
  -0.03051193  0.03051193  0.11187707       0.003
  -0.04068257  0.04068257  0.12204772       0.003
  -0.05085321  0.05085321  0.13221836       0.003
   0.13221836 -0.13221836 -0.05085321       0.003
   0.12204772 -0.12204772 -0.04068257       0.003
   0.11187707 -0.11187707 -0.03051193       0.003
   0.10170643 -0.10170643 -0.02034129       0.003
   0.09153579 -0.09153579 -0.01017064       0.003
   0.08136514 -0.08136514  0.00000000       0.002
   0.00000000  0.00000000  0.10170643       0.001
  -0.01017064  0.01017064  0.11187707       0.003
  -0.02034129  0.02034129  0.12204772       0.003
  -0.03051193  0.03051193  0.13221836       0.003
  -0.04068257  0.04068257  0.14238900       0.003
   0.14238900 -0.14238900 -0.04068257       0.003
   0.13221836 -0.13221836 -0.03051193       0.003
   0.12204772 -0.12204772 -0.02034129       0.003
   0.11187707 -0.11187707 -0.01017064       0.003
   0.10170643 -0.10170643  0.00000000       0.002
   0.00000000  0.00000000  0.12204772       0.001
  -0.01017064  0.01017064  0.13221836       0.003
  -0.02034129  0.02034129  0.14238900       0.003
  -0.03051193  0.03051193  0.15255964       0.003
   0.15255964 -0.15255964 -0.03051193       0.003
   0.14238900 -0.14238900 -0.02034129       0.003
   0.13221836 -0.13221836 -0.01017064       0.003
   0.12204772 -0.12204772  0.00000000       0.002
   0.00000000  0.00000000  0.14238900       0.001
  -0.01017064  0.01017064  0.15255964       0.003
  -0.02034129  0.02034129  0.16273029       0.003
   0.16273029 -0.16273029 -0.02034129       0.003
   0.15255964 -0.15255964 -0.01017064       0.003
   0.14238900 -0.14238900  0.00000000       0.002
   0.00000000  0.00000000  0.16273029       0.001
  -0.01017064  0.01017064  0.17290093       0.003
   0.17290093 -0.17290093 -0.01017064       0.003
   0.16273029 -0.16273029  0.00000000       0.002
   0.00000000  0.00000000  0.18307157       0.001
   0.18307157 -0.18307157  0.00000000       0.002
   0.00000000  0.02034129  0.04068257       0.003
  -0.01017064  0.03051193  0.05085321       0.007
  -0.02034129  0.04068257  0.06102386       0.007
  -0.03051193  0.05085321  0.07119450       0.007
  -0.04068257  0.06102386  0.08136514       0.007
  -0.05085321  0.07119450  0.09153579       0.007
  -0.06102386  0.08136514  0.10170643       0.007
   0.12204772 -0.10170643 -0.08136514       0.007
   0.00000000  0.02034129  0.06102386       0.003
  -0.01017064  0.03051193  0.07119450       0.007
  -0.02034129  0.04068257  0.08136514       0.007
  -0.03051193  0.05085321  0.09153579       0.007
  -0.04068257  0.06102386  0.10170643       0.007
  -0.05085321  0.07119450  0.11187707       0.007
   0.13221836 -0.11187707 -0.07119450       0.007
   0.12204772 -0.10170643 -0.06102386       0.007
   0.11187707 -0.09153579 -0.05085321       0.007
   0.10170643 -0.08136514 -0.04068257       0.007
   0.09153579 -0.07119450 -0.03051193       0.007
   0.08136514 -0.06102386 -0.02034129       0.007
   0.07119450 -0.05085321 -0.01017064       0.007
   0.06102386 -0.04068257  0.00000000       0.003
  -0.00000000  0.02034129  0.08136514       0.003
  -0.01017064  0.03051193  0.09153579       0.007
  -0.02034129  0.04068257  0.10170643       0.007
  -0.03051193  0.05085321  0.11187707       0.007
  -0.04068257  0.06102386  0.12204772       0.007
   0.14238900 -0.12204772 -0.06102386       0.007
   0.13221836 -0.11187707 -0.05085321       0.007
   0.12204772 -0.10170643 -0.04068257       0.007
   0.11187707 -0.09153579 -0.03051193       0.007
   0.10170643 -0.08136514 -0.02034129       0.007
   0.09153579 -0.07119450 -0.01017064       0.007
   0.08136514 -0.06102386  0.00000000       0.003
   0.00000000  0.02034129  0.10170643       0.003
  -0.01017064  0.03051193  0.11187707       0.007
  -0.02034129  0.04068257  0.12204772       0.007
  -0.03051193  0.05085321  0.13221836       0.007
   0.15255964 -0.13221836 -0.05085321       0.007
   0.14238900 -0.12204772 -0.04068257       0.007
   0.13221836 -0.11187707 -0.03051193       0.007
   0.12204772 -0.10170643 -0.02034129       0.007
   0.11187707 -0.09153579 -0.01017064       0.007
   0.10170643 -0.08136514  0.00000000       0.003
   0.00000000  0.02034129  0.12204772       0.003
  -0.01017064  0.03051193  0.13221836       0.007
  -0.02034129  0.04068257  0.14238900       0.007
   0.16273029 -0.14238900 -0.04068257       0.007
   0.15255964 -0.13221836 -0.03051193       0.007
   0.14238900 -0.12204772 -0.02034129       0.007
   0.13221836 -0.11187707 -0.01017064       0.007
   0.12204772 -0.10170643  0.00000000       0.003
  -0.00000000  0.02034129  0.14238900       0.003
  -0.01017064  0.03051193  0.15255964       0.007
   0.17290093 -0.15255964 -0.03051193       0.007
   0.16273029 -0.14238900 -0.02034129       0.007
   0.15255964 -0.13221836 -0.01017064       0.007
   0.14238900 -0.12204772  0.00000000       0.003
   0.00000000  0.02034129  0.16273029       0.003
   0.18307157 -0.16273029 -0.02034129       0.007
   0.17290093 -0.15255964 -0.01017064       0.007
   0.16273029 -0.14238900  0.00000000       0.003
   0.19324222 -0.17290093 -0.01017064       0.003
   0.18307157 -0.16273029  0.00000000       0.003
   0.00000000  0.04068257  0.08136514       0.003
  -0.01017064  0.05085321  0.09153579       0.007
  -0.02034129  0.06102386  0.10170643       0.007
  -0.03051193  0.07119450  0.11187707       0.007
   0.15255964 -0.11187707 -0.07119450       0.007
   0.14238900 -0.10170643 -0.06102386       0.007
   0.00000000  0.04068257  0.10170643       0.003
  -0.01017064  0.05085321  0.11187707       0.007
  -0.02034129  0.06102386  0.12204772       0.007
   0.16273029 -0.12204772 -0.06102386       0.007
   0.15255964 -0.11187707 -0.05085321       0.007
   0.14238900 -0.10170643 -0.04068257       0.007
   0.13221836 -0.09153579 -0.03051193       0.007
   0.12204772 -0.08136514 -0.02034129       0.007
   0.11187707 -0.07119450 -0.01017064       0.007
   0.10170643 -0.06102386  0.00000000       0.003
   0.00000000  0.04068257  0.12204772       0.003
  -0.01017064  0.05085321  0.13221836       0.007
   0.17290093 -0.13221836 -0.05085321       0.007
   0.16273029 -0.12204772 -0.04068257       0.007
   0.15255964 -0.11187707 -0.03051193       0.007
   0.14238900 -0.10170643 -0.02034129       0.007
   0.13221836 -0.09153579 -0.01017064       0.007
   0.12204772 -0.08136514  0.00000000       0.003
   0.00000000  0.04068257  0.14238900       0.003
   0.18307157 -0.14238900 -0.04068257       0.007
   0.17290093 -0.13221836 -0.03051193       0.007
   0.16273029 -0.12204772 -0.02034129       0.007
   0.15255964 -0.11187707 -0.01017064       0.007
   0.14238900 -0.10170643  0.00000000       0.003
   0.19324222 -0.15255964 -0.03051193       0.003
   0.18307157 -0.14238900 -0.02034129       0.007
   0.17290093 -0.13221836 -0.01017064       0.007
   0.16273029 -0.12204772  0.00000000       0.003
   0.19324222 -0.15255964 -0.01017064       0.003
   0.18307157 -0.14238900  0.00000000       0.003
   0.00000000  0.06102386  0.12204772       0.003
   0.18307157 -0.12204772 -0.06102386       0.007
   0.17290093 -0.11187707 -0.05085321       0.007
   0.16273029 -0.10170643 -0.04068257       0.007
   0.19324222 -0.13221836 -0.05085321       0.003
   0.18307157 -0.12204772 -0.04068257       0.007
   0.17290093 -0.11187707 -0.03051193       0.007
   0.16273029 -0.10170643 -0.02034129       0.007
   0.15255964 -0.09153579 -0.01017064       0.007
   0.14238900 -0.08136514  0.00000000       0.003
   0.19324222 -0.13221836 -0.03051193       0.003
   0.18307157 -0.12204772 -0.02034129       0.007
   0.17290093 -0.11187707 -0.01017064       0.007
   0.16273029 -0.10170643  0.00000000       0.003
   0.19324222 -0.13221836 -0.01017064       0.003
   0.18307157 -0.12204772  0.00000000       0.003
   0.19324222 -0.11187707 -0.03051193       0.003
   0.18307157 -0.10170643 -0.02034129       0.007
   0.19324222 -0.11187707 -0.01017064       0.003
   0.18307157 -0.10170643  0.00000000       0.003
 
 k-points in reciprocal lattice and weights: K-Mesh                                  
   0.00000000  0.00000000  0.00000000       0.000
   0.05263158  0.00000000  0.00000000       0.001
   0.10526316  0.00000000  0.00000000       0.001
   0.15789474  0.00000000  0.00000000       0.001
   0.21052632  0.00000000  0.00000000       0.001
   0.26315789  0.00000000  0.00000000       0.001
   0.31578947  0.00000000  0.00000000       0.001
   0.36842105  0.00000000  0.00000000       0.001
   0.42105263  0.00000000  0.00000000       0.001
   0.47368421  0.00000000  0.00000000       0.001
   0.05263158  0.05263158  0.00000000       0.001
   0.10526316  0.05263158  0.00000000       0.003
   0.15789474  0.05263158  0.00000000       0.003
   0.21052632  0.05263158  0.00000000       0.003
   0.26315789  0.05263158  0.00000000       0.003
   0.31578947  0.05263158  0.00000000       0.003
   0.36842105  0.05263158  0.00000000       0.003
   0.42105263  0.05263158  0.00000000       0.003
   0.47368421  0.05263158  0.00000000       0.003
  -0.47368421  0.05263158  0.00000000       0.003
  -0.42105263  0.05263158  0.00000000       0.003
  -0.36842105  0.05263158  0.00000000       0.003
  -0.31578947  0.05263158  0.00000000       0.003
  -0.26315789  0.05263158  0.00000000       0.003
  -0.21052632  0.05263158  0.00000000       0.003
  -0.15789474  0.05263158  0.00000000       0.003
  -0.10526316  0.05263158  0.00000000       0.003
  -0.05263158  0.05263158  0.00000000       0.002
   0.10526316  0.10526316  0.00000000       0.001
   0.15789474  0.10526316  0.00000000       0.003
   0.21052632  0.10526316  0.00000000       0.003
   0.26315789  0.10526316  0.00000000       0.003
   0.31578947  0.10526316  0.00000000       0.003
   0.36842105  0.10526316  0.00000000       0.003
   0.42105263  0.10526316  0.00000000       0.003
   0.47368421  0.10526316  0.00000000       0.003
  -0.47368421  0.10526316  0.00000000       0.003
  -0.42105263  0.10526316  0.00000000       0.003
  -0.36842105  0.10526316  0.00000000       0.003
  -0.31578947  0.10526316  0.00000000       0.003
  -0.26315789  0.10526316  0.00000000       0.003
  -0.21052632  0.10526316  0.00000000       0.003
  -0.15789474  0.10526316  0.00000000       0.003
  -0.10526316  0.10526316  0.00000000       0.002
   0.15789474  0.15789474  0.00000000       0.001
   0.21052632  0.15789474  0.00000000       0.003
   0.26315789  0.15789474  0.00000000       0.003
   0.31578947  0.15789474  0.00000000       0.003
   0.36842105  0.15789474  0.00000000       0.003
   0.42105263  0.15789474  0.00000000       0.003
   0.47368421  0.15789474  0.00000000       0.003
  -0.47368421  0.15789474  0.00000000       0.003
  -0.42105263  0.15789474  0.00000000       0.003
  -0.36842105  0.15789474  0.00000000       0.003
  -0.31578947  0.15789474  0.00000000       0.003
  -0.26315789  0.15789474  0.00000000       0.003
  -0.21052632  0.15789474  0.00000000       0.003
  -0.15789474  0.15789474  0.00000000       0.002
   0.21052632  0.21052632  0.00000000       0.001
   0.26315789  0.21052632  0.00000000       0.003
   0.31578947  0.21052632  0.00000000       0.003
   0.36842105  0.21052632  0.00000000       0.003
   0.42105263  0.21052632  0.00000000       0.003
   0.47368421  0.21052632  0.00000000       0.003
  -0.47368421  0.21052632  0.00000000       0.003
  -0.42105263  0.21052632  0.00000000       0.003
  -0.36842105  0.21052632  0.00000000       0.003
  -0.31578947  0.21052632  0.00000000       0.003
  -0.26315789  0.21052632  0.00000000       0.003
  -0.21052632  0.21052632  0.00000000       0.002
   0.26315789  0.26315789  0.00000000       0.001
   0.31578947  0.26315789  0.00000000       0.003
   0.36842105  0.26315789  0.00000000       0.003
   0.42105263  0.26315789  0.00000000       0.003
   0.47368421  0.26315789  0.00000000       0.003
  -0.47368421  0.26315789  0.00000000       0.003
  -0.42105263  0.26315789  0.00000000       0.003
  -0.36842105  0.26315789  0.00000000       0.003
  -0.31578947  0.26315789  0.00000000       0.003
  -0.26315789  0.26315789  0.00000000       0.002
   0.31578947  0.31578947  0.00000000       0.001
   0.36842105  0.31578947  0.00000000       0.003
   0.42105263  0.31578947  0.00000000       0.003
   0.47368421  0.31578947  0.00000000       0.003
  -0.47368421  0.31578947  0.00000000       0.003
  -0.42105263  0.31578947  0.00000000       0.003
  -0.36842105  0.31578947  0.00000000       0.003
  -0.31578947  0.31578947  0.00000000       0.002
   0.36842105  0.36842105  0.00000000       0.001
   0.42105263  0.36842105  0.00000000       0.003
   0.47368421  0.36842105  0.00000000       0.003
  -0.47368421  0.36842105  0.00000000       0.003
  -0.42105263  0.36842105  0.00000000       0.003
  -0.36842105  0.36842105  0.00000000       0.002
   0.42105263  0.42105263  0.00000000       0.001
   0.47368421  0.42105263  0.00000000       0.003
  -0.47368421  0.42105263  0.00000000       0.003
  -0.42105263  0.42105263  0.00000000       0.002
   0.47368421  0.47368421  0.00000000       0.001
  -0.47368421  0.47368421  0.00000000       0.002
   0.15789474  0.10526316  0.05263158       0.003
   0.21052632  0.10526316  0.05263158       0.007
   0.26315789  0.10526316  0.05263158       0.007
   0.31578947  0.10526316  0.05263158       0.007
   0.36842105  0.10526316  0.05263158       0.007
   0.42105263  0.10526316  0.05263158       0.007
   0.47368421  0.10526316  0.05263158       0.007
  -0.47368421  0.10526316  0.05263158       0.007
   0.21052632  0.15789474  0.05263158       0.003
   0.26315789  0.15789474  0.05263158       0.007
   0.31578947  0.15789474  0.05263158       0.007
   0.36842105  0.15789474  0.05263158       0.007
   0.42105263  0.15789474  0.05263158       0.007
   0.47368421  0.15789474  0.05263158       0.007
  -0.47368421  0.15789474  0.05263158       0.007
  -0.42105263  0.15789474  0.05263158       0.007
  -0.36842105  0.15789474  0.05263158       0.007
  -0.31578947  0.15789474  0.05263158       0.007
  -0.26315789  0.15789474  0.05263158       0.007
  -0.21052632  0.15789474  0.05263158       0.007
  -0.15789474  0.15789474  0.05263158       0.007
  -0.10526316  0.15789474  0.05263158       0.003
   0.26315789  0.21052632  0.05263158       0.003
   0.31578947  0.21052632  0.05263158       0.007
   0.36842105  0.21052632  0.05263158       0.007
   0.42105263  0.21052632  0.05263158       0.007
   0.47368421  0.21052632  0.05263158       0.007
  -0.47368421  0.21052632  0.05263158       0.007
  -0.42105263  0.21052632  0.05263158       0.007
  -0.36842105  0.21052632  0.05263158       0.007
  -0.31578947  0.21052632  0.05263158       0.007
  -0.26315789  0.21052632  0.05263158       0.007
  -0.21052632  0.21052632  0.05263158       0.007
  -0.15789474  0.21052632  0.05263158       0.003
   0.31578947  0.26315789  0.05263158       0.003
   0.36842105  0.26315789  0.05263158       0.007
   0.42105263  0.26315789  0.05263158       0.007
   0.47368421  0.26315789  0.05263158       0.007
  -0.47368421  0.26315789  0.05263158       0.007
  -0.42105263  0.26315789  0.05263158       0.007
  -0.36842105  0.26315789  0.05263158       0.007
  -0.31578947  0.26315789  0.05263158       0.007
  -0.26315789  0.26315789  0.05263158       0.007
  -0.21052632  0.26315789  0.05263158       0.003
   0.36842105  0.31578947  0.05263158       0.003
   0.42105263  0.31578947  0.05263158       0.007
   0.47368421  0.31578947  0.05263158       0.007
  -0.47368421  0.31578947  0.05263158       0.007
  -0.42105263  0.31578947  0.05263158       0.007
  -0.36842105  0.31578947  0.05263158       0.007
  -0.31578947  0.31578947  0.05263158       0.007
  -0.26315789  0.31578947  0.05263158       0.003
   0.42105263  0.36842105  0.05263158       0.003
   0.47368421  0.36842105  0.05263158       0.007
  -0.47368421  0.36842105  0.05263158       0.007
  -0.42105263  0.36842105  0.05263158       0.007
  -0.36842105  0.36842105  0.05263158       0.007
  -0.31578947  0.36842105  0.05263158       0.003
   0.47368421  0.42105263  0.05263158       0.003
  -0.47368421  0.42105263  0.05263158       0.007
  -0.42105263  0.42105263  0.05263158       0.007
  -0.36842105  0.42105263  0.05263158       0.003
  -0.47368421  0.47368421  0.05263158       0.003
  -0.42105263  0.47368421  0.05263158       0.003
   0.31578947  0.21052632  0.10526316       0.003
   0.36842105  0.21052632  0.10526316       0.007
   0.42105263  0.21052632  0.10526316       0.007
   0.47368421  0.21052632  0.10526316       0.007
  -0.47368421  0.21052632  0.10526316       0.007
  -0.42105263  0.21052632  0.10526316       0.007
   0.36842105  0.26315789  0.10526316       0.003
   0.42105263  0.26315789  0.10526316       0.007
   0.47368421  0.26315789  0.10526316       0.007
  -0.47368421  0.26315789  0.10526316       0.007
  -0.42105263  0.26315789  0.10526316       0.007
  -0.36842105  0.26315789  0.10526316       0.007
  -0.31578947  0.26315789  0.10526316       0.007
  -0.26315789  0.26315789  0.10526316       0.007
  -0.21052632  0.26315789  0.10526316       0.007
  -0.15789474  0.26315789  0.10526316       0.003
   0.42105263  0.31578947  0.10526316       0.003
   0.47368421  0.31578947  0.10526316       0.007
  -0.47368421  0.31578947  0.10526316       0.007
  -0.42105263  0.31578947  0.10526316       0.007
  -0.36842105  0.31578947  0.10526316       0.007
  -0.31578947  0.31578947  0.10526316       0.007
  -0.26315789  0.31578947  0.10526316       0.007
  -0.21052632  0.31578947  0.10526316       0.003
   0.47368421  0.36842105  0.10526316       0.003
  -0.47368421  0.36842105  0.10526316       0.007
  -0.42105263  0.36842105  0.10526316       0.007
  -0.36842105  0.36842105  0.10526316       0.007
  -0.31578947  0.36842105  0.10526316       0.007
  -0.26315789  0.36842105  0.10526316       0.003
  -0.47368421  0.42105263  0.10526316       0.003
  -0.42105263  0.42105263  0.10526316       0.007
  -0.36842105  0.42105263  0.10526316       0.007
  -0.31578947  0.42105263  0.10526316       0.003
  -0.42105263  0.47368421  0.10526316       0.003
  -0.36842105  0.47368421  0.10526316       0.003
   0.47368421  0.31578947  0.15789474       0.003
  -0.47368421  0.31578947  0.15789474       0.007
  -0.42105263  0.31578947  0.15789474       0.007
  -0.36842105  0.31578947  0.15789474       0.007
  -0.47368421  0.36842105  0.15789474       0.003
  -0.42105263  0.36842105  0.15789474       0.007
  -0.36842105  0.36842105  0.15789474       0.007
  -0.31578947  0.36842105  0.15789474       0.007
  -0.26315789  0.36842105  0.15789474       0.007
  -0.21052632  0.36842105  0.15789474       0.003
  -0.42105263  0.42105263  0.15789474       0.003
  -0.36842105  0.42105263  0.15789474       0.007
  -0.31578947  0.42105263  0.15789474       0.007
  -0.26315789  0.42105263  0.15789474       0.003
  -0.36842105  0.47368421  0.15789474       0.003
  -0.31578947  0.47368421  0.15789474       0.003
  -0.36842105  0.42105263  0.21052632       0.003
  -0.31578947  0.42105263  0.21052632       0.007
  -0.31578947  0.47368421  0.21052632       0.003
  -0.26315789  0.47368421  0.21052632       0.003
 
 position of ions in fractional coordinates (direct lattice) 
   0.50000000  0.50000000  0.50000000
   0.00000000  0.00000000  0.00000000
 
 position of ions in cartesian coordinates  (Angst):
   2.58742634  2.58742634  2.58742634
   0.00000000  0.00000000  0.00000000
 


--------------------------------------------------------------------------------------------------------


 k-point  1 :   0.0000 0.0000 0.0000  plane waves:     941
 k-point  2 :   0.0526 0.0000 0.0000  plane waves:     941
 k-point  3 :   0.1053 0.0000 0.0000  plane waves:     929
 k-point  4 :   0.1579 0.0000 0.0000  plane waves:     917
 k-point  5 :   0.2105 0.0000 0.0000  plane waves:     920
 k-point  6 :   0.2632 0.0000 0.0000  plane waves:     935
 k-point  7 :   0.3158 0.0000 0.0000  plane waves:     926
 k-point  8 :   0.3684 0.0000 0.0000  plane waves:     926
 k-point  9 :   0.4211 0.0000 0.0000  plane waves:     932
 k-point 10 :   0.4737 0.0000 0.0000  plane waves:     936
 k-point 11 :   0.0526 0.0526 0.0000  plane waves:     933
 k-point 12 :   0.1053 0.0526 0.0000  plane waves:     927
 k-point 13 :   0.1579 0.0526 0.0000  plane waves:     924
 k-point 14 :   0.2105 0.0526 0.0000  plane waves:     925
 k-point 15 :   0.2632 0.0526 0.0000  plane waves:     929
 k-point 16 :   0.3158 0.0526 0.0000  plane waves:     930
 k-point 17 :   0.3684 0.0526 0.0000  plane waves:     929
 k-point 18 :   0.4211 0.0526 0.0000  plane waves:     930
 k-point 19 :   0.4737 0.0526 0.0000  plane waves:     929
 k-point 20 :  -0.4737 0.0526 0.0000  plane waves:     936
 k-point 21 :  -0.4211 0.0526 0.0000  plane waves:     931
 k-point 22 :  -0.3684 0.0526 0.0000  plane waves:     934
 k-point 23 :  -0.3158 0.0526 0.0000  plane waves:     928
 k-point 24 :  -0.2632 0.0526 0.0000  plane waves:     934
 k-point 25 :  -0.2105 0.0526 0.0000  plane waves:     927
 k-point 26 :  -0.1579 0.0526 0.0000  plane waves:     923
 k-point 27 :  -0.1053 0.0526 0.0000  plane waves:     923
 k-point 28 :  -0.0526 0.0526 0.0000  plane waves:     929
 k-point 29 :   0.1053 0.1053 0.0000  plane waves:     933
 k-point 30 :   0.1579 0.1053 0.0000  plane waves:     930
 k-point 31 :   0.2105 0.1053 0.0000  plane waves:     926
 k-point 32 :   0.2632 0.1053 0.0000  plane waves:     937
 k-point 33 :   0.3158 0.1053 0.0000  plane waves:     937
 k-point 34 :   0.3684 0.1053 0.0000  plane waves:     926
 k-point 35 :   0.4211 0.1053 0.0000  plane waves:     927
 k-point 36 :   0.4737 0.1053 0.0000  plane waves:     932
 k-point 37 :  -0.4737 0.1053 0.0000  plane waves:     933
 k-point 38 :  -0.4211 0.1053 0.0000  plane waves:     930
 k-point 39 :  -0.3684 0.1053 0.0000  plane waves:     934
 k-point 40 :  -0.3158 0.1053 0.0000  plane waves:     930
 k-point 41 :  -0.2632 0.1053 0.0000  plane waves:     932
 k-point 42 :  -0.2105 0.1053 0.0000  plane waves:     931
 k-point 43 :  -0.1579 0.1053 0.0000  plane waves:     926
 k-point 44 :  -0.1053 0.1053 0.0000  plane waves:     923
 k-point 45 :   0.1579 0.1579 0.0000  plane waves:     929
 k-point 46 :   0.2105 0.1579 0.0000  plane waves:     932
 k-point 47 :   0.2632 0.1579 0.0000  plane waves:     937
 k-point 48 :   0.3158 0.1579 0.0000  plane waves:     937
 k-point 49 :   0.3684 0.1579 0.0000  plane waves:     932
 k-point 50 :   0.4211 0.1579 0.0000  plane waves:     923
 k-point 51 :   0.4737 0.1579 0.0000  plane waves:     930
 k-point 52 :  -0.4737 0.1579 0.0000  plane waves:     938
 k-point 53 :  -0.4211 0.1579 0.0000  plane waves:     938
 k-point 54 :  -0.3684 0.1579 0.0000  plane waves:     931
 k-point 55 :  -0.3158 0.1579 0.0000  plane waves:     930
 k-point 56 :  -0.2632 0.1579 0.0000  plane waves:     932
 k-point 57 :  -0.2105 0.1579 0.0000  plane waves:     928
 k-point 58 :  -0.1579 0.1579 0.0000  plane waves:     933
 k-point 59 :   0.2105 0.2105 0.0000  plane waves:     926
 k-point 60 :   0.2632 0.2105 0.0000  plane waves:     932
 k-point 61 :   0.3158 0.2105 0.0000  plane waves:     933
 k-point 62 :   0.3684 0.2105 0.0000  plane waves:     932
 k-point 63 :   0.4211 0.2105 0.0000  plane waves:     929
 k-point 64 :   0.4737 0.2105 0.0000  plane waves:     929
 k-point 65 :  -0.4737 0.2105 0.0000  plane waves:     934
 k-point 66 :  -0.4211 0.2105 0.0000  plane waves:     930
 k-point 67 :  -0.3684 0.2105 0.0000  plane waves:     930
 k-point 68 :  -0.3158 0.2105 0.0000  plane waves:     929
 k-point 69 :  -0.2632 0.2105 0.0000  plane waves:     927
 k-point 70 :  -0.2105 0.2105 0.0000  plane waves:     925
 k-point 71 :   0.2632 0.2632 0.0000  plane waves:     938
 k-point 72 :   0.3158 0.2632 0.0000  plane waves:     935
 k-point 73 :   0.3684 0.2632 0.0000  plane waves:     930
 k-point 74 :   0.4211 0.2632 0.0000  plane waves:     934
 k-point 75 :   0.4737 0.2632 0.0000  plane waves:     926
 k-point 76 :  -0.4737 0.2632 0.0000  plane waves:     936
 k-point 77 :  -0.4211 0.2632 0.0000  plane waves:     935
 k-point 78 :  -0.3684 0.2632 0.0000  plane waves:     935
 k-point 79 :  -0.3158 0.2632 0.0000  plane waves:     936
 k-point 80 :  -0.2632 0.2632 0.0000  plane waves:     929
 k-point 81 :   0.3158 0.3158 0.0000  plane waves:     930
 k-point 82 :   0.3684 0.3158 0.0000  plane waves:     934
 k-point 83 :   0.4211 0.3158 0.0000  plane waves:     931
 k-point 84 :   0.4737 0.3158 0.0000  plane waves:     936
 k-point 85 :  -0.4737 0.3158 0.0000  plane waves:     937
 k-point 86 :  -0.4211 0.3158 0.0000  plane waves:     939
 k-point 87 :  -0.3684 0.3158 0.0000  plane waves:     941
 k-point 88 :  -0.3158 0.3158 0.0000  plane waves:     945
 k-point 89 :   0.3684 0.3684 0.0000  plane waves:     934
 k-point 90 :   0.4211 0.3684 0.0000  plane waves:     939
 k-point 91 :   0.4737 0.3684 0.0000  plane waves:     941
 k-point 92 :  -0.4737 0.3684 0.0000  plane waves:     939
 k-point 93 :  -0.4211 0.3684 0.0000  plane waves:     939
 k-point 94 :  -0.3684 0.3684 0.0000  plane waves:     937
 k-point 95 :   0.4211 0.4211 0.0000  plane waves:     950
 k-point 96 :   0.4737 0.4211 0.0000  plane waves:     944
 k-point 97 :  -0.4737 0.4211 0.0000  plane waves:     952
 k-point 98 :  -0.4211 0.4211 0.0000  plane waves:     944
 k-point 99 :   0.4737 0.4737 0.0000  plane waves:     942
 k-point ** :  -0.4737 0.4737 0.0000  plane waves:     942
 k-point ** :   0.1579 0.1053 0.0526  plane waves:     931
 k-point ** :   0.2105 0.1053 0.0526  plane waves:     925
 k-point ** :   0.2632 0.1053 0.0526  plane waves:     930
 k-point ** :   0.3158 0.1053 0.0526  plane waves:     933
 k-point ** :   0.3684 0.1053 0.0526  plane waves:     931
 k-point ** :   0.4211 0.1053 0.0526  plane waves:     929
 k-point ** :   0.4737 0.1053 0.0526  plane waves:     931
 k-point ** :  -0.4737 0.1053 0.0526  plane waves:     930
 k-point ** :   0.2105 0.1579 0.0526  plane waves:     927
 k-point ** :   0.2632 0.1579 0.0526  plane waves:     931
 k-point ** :   0.3158 0.1579 0.0526  plane waves:     935
 k-point ** :   0.3684 0.1579 0.0526  plane waves:     933
 k-point ** :   0.4211 0.1579 0.0526  plane waves:     925
 k-point ** :   0.4737 0.1579 0.0526  plane waves:     927
 k-point ** :  -0.4737 0.1579 0.0526  plane waves:     932
 k-point ** :  -0.4211 0.1579 0.0526  plane waves:     931
 k-point ** :  -0.3684 0.1579 0.0526  plane waves:     932
 k-point ** :  -0.3158 0.1579 0.0526  plane waves:     932
 k-point ** :  -0.2632 0.1579 0.0526  plane waves:     931
 k-point ** :  -0.2105 0.1579 0.0526  plane waves:     935
 k-point ** :  -0.1579 0.1579 0.0526  plane waves:     934
 k-point ** :  -0.1053 0.1579 0.0526  plane waves:     924
 k-point ** :   0.2632 0.2105 0.0526  plane waves:     935
 k-point ** :   0.3158 0.2105 0.0526  plane waves:     936
 k-point ** :   0.3684 0.2105 0.0526  plane waves:     931
 k-point ** :   0.4211 0.2105 0.0526  plane waves:     931
 k-point ** :   0.4737 0.2105 0.0526  plane waves:     926
 k-point ** :  -0.4737 0.2105 0.0526  plane waves:     933
 k-point ** :  -0.4211 0.2105 0.0526  plane waves:     937
 k-point ** :  -0.3684 0.2105 0.0526  plane waves:     935
 k-point ** :  -0.3158 0.2105 0.0526  plane waves:     927
 k-point ** :  -0.2632 0.2105 0.0526  plane waves:     933
 k-point ** :  -0.2105 0.2105 0.0526  plane waves:     930
 k-point ** :  -0.1579 0.2105 0.0526  plane waves:     932
 k-point ** :   0.3158 0.2632 0.0526  plane waves:     934
 k-point ** :   0.3684 0.2632 0.0526  plane waves:     933
 k-point ** :   0.4211 0.2632 0.0526  plane waves:     935
 k-point ** :   0.4737 0.2632 0.0526  plane waves:     928
 k-point ** :  -0.4737 0.2632 0.0526  plane waves:     934
 k-point ** :  -0.4211 0.2632 0.0526  plane waves:     936
 k-point ** :  -0.3684 0.2632 0.0526  plane waves:     939
 k-point ** :  -0.3158 0.2632 0.0526  plane waves:     937
 k-point ** :  -0.2632 0.2632 0.0526  plane waves:     930
 k-point ** :  -0.2105 0.2632 0.0526  plane waves:     932
 k-point ** :   0.3684 0.3158 0.0526  plane waves:     935
 k-point ** :   0.4211 0.3158 0.0526  plane waves:     931
 k-point ** :   0.4737 0.3158 0.0526  plane waves:     934
 k-point ** :  -0.4737 0.3158 0.0526  plane waves:     937
 k-point ** :  -0.4211 0.3158 0.0526  plane waves:     935
 k-point ** :  -0.3684 0.3158 0.0526  plane waves:     938
 k-point ** :  -0.3158 0.3158 0.0526  plane waves:     932
 k-point ** :  -0.2632 0.3158 0.0526  plane waves:     933
 k-point ** :   0.4211 0.3684 0.0526  plane waves:     936
 k-point ** :   0.4737 0.3684 0.0526  plane waves:     934
 k-point ** :  -0.4737 0.3684 0.0526  plane waves:     938
 k-point ** :  -0.4211 0.3684 0.0526  plane waves:     934
 k-point ** :  -0.3684 0.3684 0.0526  plane waves:     939
 k-point ** :  -0.3158 0.3684 0.0526  plane waves:     935
 k-point ** :   0.4737 0.4211 0.0526  plane waves:     940
 k-point ** :  -0.4737 0.4211 0.0526  plane waves:     943
 k-point ** :  -0.4211 0.4211 0.0526  plane waves:     939
 k-point ** :  -0.3684 0.4211 0.0526  plane waves:     940
 k-point ** :  -0.4737 0.4737 0.0526  plane waves:     946
 k-point ** :  -0.4211 0.4737 0.0526  plane waves:     949
 k-point ** :   0.3158 0.2105 0.1053  plane waves:     932
 k-point ** :   0.3684 0.2105 0.1053  plane waves:     934
 k-point ** :   0.4211 0.2105 0.1053  plane waves:     933
 k-point ** :   0.4737 0.2105 0.1053  plane waves:     929
 k-point ** :  -0.4737 0.2105 0.1053  plane waves:     934
 k-point ** :  -0.4211 0.2105 0.1053  plane waves:     939
 k-point ** :   0.3684 0.2632 0.1053  plane waves:     936
 k-point ** :   0.4211 0.2632 0.1053  plane waves:     929
 k-point ** :   0.4737 0.2632 0.1053  plane waves:     930
 k-point ** :  -0.4737 0.2632 0.1053  plane waves:     932
 k-point ** :  -0.4211 0.2632 0.1053  plane waves:     939
 k-point ** :  -0.3684 0.2632 0.1053  plane waves:     937
 k-point ** :  -0.3158 0.2632 0.1053  plane waves:     936
 k-point ** :  -0.2632 0.2632 0.1053  plane waves:     931
 k-point ** :  -0.2105 0.2632 0.1053  plane waves:     927
 k-point ** :  -0.1579 0.2632 0.1053  plane waves:     930
 k-point ** :   0.4211 0.3158 0.1053  plane waves:     927
 k-point ** :   0.4737 0.3158 0.1053  plane waves:     932
 k-point ** :  -0.4737 0.3158 0.1053  plane waves:     928
 k-point ** :  -0.4211 0.3158 0.1053  plane waves:     935
 k-point ** :  -0.3684 0.3158 0.1053  plane waves:     935
 k-point ** :  -0.3158 0.3158 0.1053  plane waves:     939
 k-point ** :  -0.2632 0.3158 0.1053  plane waves:     934
 k-point ** :  -0.2105 0.3158 0.1053  plane waves:     929
 k-point ** :   0.4737 0.3684 0.1053  plane waves:     940
 k-point ** :  -0.4737 0.3684 0.1053  plane waves:     937
 k-point ** :  -0.4211 0.3684 0.1053  plane waves:     934
 k-point ** :  -0.3684 0.3684 0.1053  plane waves:     929
 k-point ** :  -0.3158 0.3684 0.1053  plane waves:     928
 k-point ** :  -0.2632 0.3684 0.1053  plane waves:     934
 k-point ** :  -0.4737 0.4211 0.1053  plane waves:     936
 k-point ** :  -0.4211 0.4211 0.1053  plane waves:     937
 k-point ** :  -0.3684 0.4211 0.1053  plane waves:     933
 k-point ** :  -0.3158 0.4211 0.1053  plane waves:     934
 k-point ** :  -0.4211 0.4737 0.1053  plane waves:     943
 k-point ** :  -0.3684 0.4737 0.1053  plane waves:     933
 k-point ** :   0.4737 0.3158 0.1579  plane waves:     930
 k-point ** :  -0.4737 0.3158 0.1579  plane waves:     931
 k-point ** :  -0.4211 0.3158 0.1579  plane waves:     932
 k-point ** :  -0.3684 0.3158 0.1579  plane waves:     936
[...]

 k-point   196 :      -0.4211    0.4211    0.1053
  band No.  band energies     occupation 
      1     -30.2853      2.00000
      2      -9.5974      2.00000
      3      -8.8263      2.00000
      4      -8.5773      2.00000
      5      -4.7760      2.00000
      6       5.3453      2.00000
      7       6.2861      2.00000
      8       6.8915      2.00000
      9       7.5713      2.00000
     10      10.7040      0.00000
     11      11.2223      0.00000
     12      11.5162      0.00000

 k-point   197 :      -0.3684    0.4211    0.1053
  band No.  band energies     occupation 
      1     -30.2818      2.00000
      2      -9.4879      2.00000
      3      -9.1118      2.00000
      4      -8.5320      2.00000
      5      -4.5836      2.00000
      6       5.0264      2.00000
      7       6.2166      2.00000
      8       6.9585      2.00000
      9       7.9578      2.00000
     10      10.4240      0.00000
     11      11.1986      0.00000
     12      11.5077      0.00000

 k-point   198 :      -0.3158    0.4211    0.1053
  band No.  band energies     occupation 
      1     -30.2833      2.00000
      2      -9.4201      2.00000
      3      -9.3128      2.00000
      4      -8.4505      2.00000
      5      -4.3603      2.00000
      6       4.7213      2.00000
      7       6.0455      2.00000
      8       6.8789      2.00000
      9       8.4569      2.00000
     10      10.1179      0.00000
     11      11.1460      0.00000
     12      11.4754      0.00000

 k-point   199 :      -0.4211    0.4737    0.1053
  band No.  band energies     occupation 
      1     -30.2810      2.00000
      2      -9.5980      2.00000
      3      -8.7133      2.00000
      4      -8.6279      2.00000
      5      -5.0567      2.00000
      6       5.7403      2.00000
      7       6.2969      2.00000
      8       7.1709      2.00000
      9       7.2485      2.00000
     10      10.8611      0.00000
     11      11.2223      0.00000
     12      11.5839      0.00000

 k-point   200 :      -0.3684    0.4737    0.1053
  band No.  band energies     occupation 
      1     -30.2795      2.00000
      2      -9.5192      2.00000
      3      -8.9295      2.00000
      4      -8.6132      2.00000
      5      -4.8494      2.00000
      6       5.3942      2.00000
      7       6.3045      2.00000
      8       7.1454      2.00000
      9       7.5483      2.00000
     10      10.6544      0.00000
     11      11.2258      0.00000
     12      11.5601      0.00000

 k-point   201 :       0.4737    0.3158    0.1579
  band No.  band energies     occupation 
      1     -30.3389      2.00000
      2      -9.8291      2.00000
      3      -8.5359      2.00000
      4      -8.1009      2.00000
      5      -3.9887      2.00000
      6       4.4881      2.00000
      7       5.2061      2.00000
      8       6.1656      2.00000
      9       8.1759      2.00000
     10      10.9500      0.00000
     11      10.9665      0.00000
     12      11.3309      0.00000

 k-point   202 :      -0.4737    0.3158    0.1579
  band No.  band energies     occupation 
      1     -30.3200      2.00000
      2      -9.8782      2.00000
      3      -8.6659      2.00000
      4      -8.1878      2.00000
      5      -3.9777      2.00000
      6       4.3927      2.00000
      7       5.3846      2.00000
      8       6.2083      2.00000
      9       8.4634      2.00000
     10      10.6777      0.00000
     11      11.0414      0.00000
     12      11.3308      0.00000

 k-point   203 :      -0.4211    0.3158    0.1579
  band No.  band energies     occupation 
      1     -30.3060      2.00000
      2      -9.9100      2.00000
      3      -8.7512      2.00000
      4      -8.2680      2.00000
      5      -3.9634      2.00000
      6       4.2910      2.00000
      7       5.6063      2.00000
      8       6.1722      2.00000
      9       8.8446      0.00000
     10      10.2821      0.00000
     11      11.1115      0.00000
     12      11.3439      0.00000

 k-point   204 :      -0.3684    0.3158    0.1579
  band No.  band energies     occupation 
      1     -30.2986      2.00000
      2      -9.9257      2.00000
      3      -8.7920      2.00000
      4      -8.3164      2.00000
      5      -3.9540      2.00000
      6       4.2322      2.00000
      7       5.7973      2.00000
      8       6.0801      2.00000
      9       9.3002      0.00000
     10       9.8104      0.00000
     11      11.1568      0.00000
     12      11.3503      0.00000

 k-point   205 :      -0.4737    0.3684    0.1579
  band No.  band energies     occupation 
      1     -30.3113      2.00000
      2      -9.7784      2.00000
      3      -8.6571      2.00000
      4      -8.3533      2.00000
      5      -4.2756      2.00000
      6       4.7880      2.00000
      7       5.8215      2.00000
      8       6.2682      2.00000
      9       8.0154      2.00000
     10      10.7494      0.00000
     11      11.2347      0.00000
     12      11.2743      0.00000

 k-point   206 :      -0.4211    0.3684    0.1579
  band No.  band energies     occupation 
      1     -30.2982      2.00000
      2      -9.7491      2.00000
      3      -8.7922      2.00000
      4      -8.4559      2.00000
      5      -4.2352      2.00000
      6       4.6097      2.00000
      7       6.0801      2.00000
      8       6.3208      2.00000
      9       8.3374      2.00000
     10      10.3961      0.00000
     11      11.2630      0.00000
     12      11.3112      0.00000

 k-point   207 :      -0.3684    0.3684    0.1579
  band No.  band energies     occupation 
      1     -30.2905      2.00000
      2      -9.7136      2.00000
      3      -8.9145      2.00000
      4      -8.5037      2.00000
      5      -4.1764      2.00000
      6       4.4610      2.00000
      7       6.2248      2.00000
      8       6.3461      2.00000
      9       8.7512      0.00241
     10       9.9679      0.00000
     11      11.2592      0.00000
     12      11.3535      0.00000

 k-point   208 :      -0.3158    0.3684    0.1579
  band No.  band energies     occupation 
      1     -30.2890      2.00000
      2      -9.7030      2.00000
      3      -8.9851      2.00000
      4      -8.4837      2.00000
      5      -4.1162      2.00000
      6       4.3634      2.00000
      7       6.1198      2.00000
      8       6.4465      2.00000
      9       9.2402      0.00000
     10       9.5181      0.00000
     11      11.2296      0.00000
     12      11.3711      0.00000

 k-point   209 :      -0.2632    0.3684    0.1579
  band No.  band energies     occupation 
      1     -30.2939      2.00000
      2      -9.7428      2.00000
      3      -8.9588      2.00000
      4      -8.4090      2.00000
      5      -4.0636      2.00000
      6       4.3243      2.00000
      7       5.9141      2.00000
      8       6.4690      2.00000
      9       9.0915      0.00000
     10       9.7702      0.00000
     11      11.1766      0.00000
     12      11.3610      0.00000

 k-point   210 :      -0.2105    0.3684    0.1579
  band No.  band energies     occupation 
      1     -30.3046      2.00000
      2      -9.8138      2.00000
      3      -8.8412      2.00000
      4      -8.3017      2.00000
      5      -4.0196      2.00000
      6       4.3405      2.00000
      7       5.6555      2.00000
      8       6.3859      2.00000
      9       8.7368      0.00863
     10      10.2684      0.00000
     11      11.1099      0.00000
     12      11.3375      0.00000

 k-point   211 :      -0.4211    0.4211    0.1579
  band No.  band energies     occupation 
      1     -30.2911      2.00000
      2      -9.6446      2.00000
      3      -8.7440      2.00000
      4      -8.6311      2.00000
      5      -4.5173      2.00000
      6       4.9745      2.00000
      7       6.3457      2.00000
      8       6.5276      2.00000
      9       7.9112      2.00000
     10      10.5403      0.00000
     11      11.2624      0.00000
     12      11.4202      0.00000

 k-point   212 :      -0.3684    0.4211    0.1579
  band No.  band energies     occupation 
      1     -30.2842      2.00000
      2      -9.5416      2.00000
      3      -8.9421      2.00000
      4      -8.6856      2.00000
      5      -4.4154      2.00000
      6       4.7491      2.00000
      7       6.3882      2.00000
      8       6.7040      2.00000
      9       8.2605      2.00000
     10      10.1756      0.00000
     11      11.2811      0.00000
     12      11.4395      0.00000

 k-point   213 :      -0.3158    0.4211    0.1579
  band No.  band energies     occupation 
      1     -30.2823      2.00000
      2      -9.4513      2.00000
      3      -9.1492      2.00000
      4      -8.6407      2.00000
      5      -4.2937      2.00000
      6       4.5560      2.00000
      7       6.3308      2.00000
      8       6.7576      2.00000
      9       8.7026      0.09754
     10       9.7831      0.00000
     11      11.2703      0.00000
     12      11.4348      0.00000

 k-point   214 :      -0.2632    0.4211    0.1579
  band No.  band energies     occupation 
      1     -30.2857      2.00000
      2      -9.5488      2.00000
      3      -9.1301      2.00000
      4      -8.5418      2.00000
      5      -4.1733      2.00000
      6       4.4117      2.00000
      7       6.1670      2.00000
      8       6.6752      2.00000
      9       9.2216      0.00000
     10       9.4104      0.00000
     11      11.2319      0.00000
     12      11.4026      0.00000

 k-point   215 :      -0.3684    0.4737    0.1579
  band No.  band energies     occupation 
      1     -30.2804      2.00000
      2      -9.4867      2.00000
      3      -8.8650      2.00000
      4      -8.7894      2.00000
      5      -4.6510      2.00000
      6       5.0726      2.00000
      7       6.3861      2.00000
      8       6.9970      2.00000
      9       7.8620      2.00000
     10      10.4127      0.00000
     11      11.2702      0.00000
     12      11.5188      0.00000

 k-point   216 :      -0.3158    0.4737    0.1579
  band No.  band energies     occupation 
      1     -30.2794      2.00000
      2      -9.3658      2.00000
      3      -9.1062      2.00000
      4      -8.7573      2.00000
      5      -4.4789      2.00000
      6       4.7993      2.00000
      7       6.4158      2.00000
      8       6.9521      2.00000
      9       8.2351      2.00000
     10      10.0928      0.00000
     11      11.2864      0.00000
     12      11.4920      0.00000

 k-point   217 :      -0.3684    0.4211    0.2105
  band No.  band energies     occupation 
      1     -30.2884      2.00000
      2      -9.6157      2.00000
      3      -8.9335      2.00000
      4      -8.6152      2.00000
      5      -4.2331      2.00000
      6       4.5049      2.00000
      7       6.3396      2.00000
      8       6.4875      2.00000
      9       8.6425      1.03301
     10       9.9513      0.00000
     11      11.3262      0.00000
     12      11.3281      0.00000

 k-point   218 :      -0.3158    0.4211    0.2105
  band No.  band energies     occupation 
      1     -30.2832      2.00000
      2      -9.4919      2.00000
      3      -9.0498      2.00000
      4      -8.7147      2.00000
      5      -4.2258      2.00000
      6       4.4475      2.00000
      7       6.4977      2.00000
      8       6.5643      2.00000
      9       9.0264      0.00000
     10       9.4762      0.00000
     11      11.3432      0.00000
     12      11.3660      0.00000

 k-point   219 :      -0.3158    0.4737    0.2105
  band No.  band energies     occupation 
      1     -30.2798      2.00000
      2      -9.3600      2.00000
      3      -8.9816      2.00000
      4      -8.9349      2.00000
      5      -4.3502      2.00000
      6       4.5979      2.00000
      7       6.5433      2.00000
      8       6.7930      2.00000
      9       8.5935      1.84700
     10       9.7660      0.00000
     11      11.3376      0.00000
     12      11.4420      0.00000

 k-point   220 :      -0.2632    0.4737    0.2105
  band No.  band energies     occupation 
      1     -30.2795      2.00000
      2      -9.2399      2.00000
      3      -9.1808      2.00000
      4      -8.8874      2.00000
      5      -4.2827      2.00000
      6       4.4937      2.00000
      7       6.5890      2.00000
      8       6.7415      2.00000
      9       9.0037      0.00000
     10       9.3710      0.00000
     11      11.3614      0.00000
     12      11.4148      0.00000


--------------------------------------------------------------------------------------------------------


 soft charge-density along one line, spin component           1
         0         1         2         3         4         5         6         7         8         9
 total charge-density along one line
 
 pseudopotential strength for first ion, spin component:           1
 12.240  14.667   0.000   0.000   0.000   0.000   0.000   0.000
 14.667  17.576   0.000   0.000   0.000   0.000   0.000   0.000
  0.000   0.000  -5.690  -0.000  -0.000  -7.539  -0.000  -0.000
  0.000   0.000  -0.000  -5.690  -0.000  -0.000  -7.539  -0.000
  0.000   0.000  -0.000  -0.000  -5.690  -0.000  -0.000  -7.539
  0.000   0.000  -7.539  -0.000  -0.000  -9.264  -0.000  -0.000
  0.000   0.000  -0.000  -7.539  -0.000  -0.000  -9.264  -0.000
  0.000   0.000  -0.000  -0.000  -7.539  -0.000  -0.000  -9.264
 total augmentation occupancy for first ion, spin component:           1
  4.694  -1.633   0.000   0.000   0.000   0.000   0.000   0.000
 -1.633   0.671   0.000   0.000   0.000   0.000   0.000   0.000
  0.000   0.000   2.030  -0.000  -0.000  -0.327   0.000   0.000
  0.000   0.000  -0.000   2.030   0.000   0.000  -0.327   0.000
  0.000   0.000  -0.000   0.000   2.030   0.000   0.000  -0.327
  0.000   0.000  -0.327   0.000   0.000   0.058   0.000   0.000
  0.000   0.000   0.000  -0.327   0.000   0.000   0.058   0.000
  0.000   0.000   0.000   0.000  -0.327   0.000   0.000   0.058


------------------------ aborting loop because EDIFF is reached ----------------------------------------


 


 total charge     
 
# of ion     s       p       d       f       tot
------------------------------------------------
  1        1.255   2.384   0.000   0.000   3.639
  2        2.112   5.856   1.085   0.459   9.512
------------------------------------------------
tot        3.368   8.240   1.085   0.459  13.152

 
    CHARGE:  cpu time    0.0770: real time    0.0788
    FORLOC:  cpu time    0.0010: real time    0.0009
    FORNL :  cpu time    0.2280: real time    0.2288
    STRESS:  cpu time    1.1078: real time    1.1127
    FORCOR:  cpu time    0.0060: real time    0.0070
    FORHAR:  cpu time    0.0030: real time    0.0021
    MIXING:  cpu time    0.0000: real time    0.0005
    OFIELD:  cpu time    0.0010: real time    0.0008

  FORCE on cell =-STRESS in cart. coord.  units (eV):
  Direction    XX          YY          ZZ          XY          YZ          ZX
  --------------------------------------------------------------------------------------
  Alpha Z   135.72867   135.72867   135.72867
  Ewald    -419.99873  -419.99873  -419.99873    -0.00000     0.00000     0.00000
  Hartree    36.98502    36.98502    36.98502     0.00000     0.00000     0.00000
  E(xc)     -69.38893   -69.38893   -69.38893    -0.00000    -0.00000    -0.00000
  Local      35.77637    35.77637    35.77637     0.00001     0.00001     0.00001
  n-local     3.07857     3.02503     3.91125    -3.25219     4.18264    -2.78898
  augment   -29.55051   -29.55051   -29.55051     0.00002     0.00002     0.00002
  Kinetic   311.10089   310.08679   300.18473    12.84854   -15.92563    11.19355
  Fock        0.00000     0.00000     0.00000     0.00000     0.00000     0.00000
  -------------------------------------------------------------------------------------
  Total       0.01431     0.01431     0.01431     0.00000    -0.00000     0.00000
  in kB       0.66158     0.66158     0.66158     0.00000    -0.00000     0.00000
  external pressure =        0.66 kB  Pullay stress =        0.00 kB


 VOLUME and BASIS-vectors are now :
 -----------------------------------------------------------------------------
  energy-cutoff  :      520.00
  volume of cell :       34.64
      direct lattice vectors                 reciprocal lattice vectors
     0.000000000  2.587426345  2.587426345    -0.193242216  0.193242216  0.193242216
     2.587426345  0.000000000  2.587426345     0.193242216 -0.193242216  0.193242216
     2.587426345  2.587426345  0.000000000     0.193242216  0.193242216 -0.193242216

  length of vectors
     3.659173429  3.659173429  3.659173429     0.334705336  0.334705336  0.334705336


 FORCES acting on ions
    electron-ion (+dipol)            ewald-force                    non-local-force                 convergence-correction
 -----------------------------------------------------------------------------------------------
   0.538E-12 0.769E-12 0.429E-12   0.124E-14 0.197E-14 0.452E-14   -.397E-22 -.132E-22 0.132E-22   -.503E-14 -.215E-13 -.261E-14
   0.214E-14 -.347E-15 0.603E-15   -.136E-14 -.235E-14 -.519E-14   -.265E-22 0.000E+00 -.207E-22   -.299E-15 -.131E-15 -.455E-14
 -----------------------------------------------------------------------------------------------
   0.540E-12 0.768E-12 0.430E-12   -.114E-15 -.381E-15 -.669E-15   -.662E-22 -.132E-22 -.744E-23   -.533E-14 -.216E-13 -.716E-14
 
 
 POSITION                                       TOTAL-FORCE (eV/Angst)
 -----------------------------------------------------------------------------------
      2.58743      2.58743      2.58743        -0.000000     -0.000000     -0.000000
      0.00000      0.00000      0.00000         0.000000      0.000000      0.000000
 -----------------------------------------------------------------------------------
    total drift:                                0.000000      0.000000      0.000000


--------------------------------------------------------------------------------------------------------



  FREE ENERGIE OF THE ION-ELECTRON SYSTEM (eV)
  ---------------------------------------------------
  free  energy   TOTEN  =       -18.92734103 eV

  energy  without entropy=      -18.92579894  energy(sigma->0) =      -18.92656998
 


--------------------------------------------------------------------------------------------------------


    POTLOK:  cpu time    0.0410: real time    0.0413


--------------------------------------------------------------------------------------------------------


     LOOP+:  cpu time   18.0513: real time   18.2793
    4ORBIT:  cpu time    0.0000: real time    0.0000
 


 total charge     
 
# of ion     s       p       d       f       tot
------------------------------------------------
  1        1.255   2.384   0.000   0.000   3.639
  2        2.112   5.856   1.085   0.459   9.512
------------------------------------------------
tot        3.368   8.240   1.085   0.459  13.152

 

 total amount of memory used by VASP on root node    61844. kBytes
========================================================================

   base      :      30000. kBytes
   nonl-proj :      27717. kBytes
   fftplans  :       1331. kBytes
   grid      :        762. kBytes
   one-center:         49. kBytes
   wavefun   :       1985. kBytes
 
  
  
 General timing and accounting informations for this job:
 ========================================================
  
                  Total CPU time used (sec):       24.113
                            User time (sec):       19.750
                          System time (sec):        4.363
                         Elapsed time (sec):       24.799
  
                   Maximum memory used (kb):      135400.
                   Average memory used (kb):           0.
  
                          Minor page faults:       201386
                          Major page faults:            2
                 Voluntary context switches:         2029
