 vasp.5.4.1 24Jun15 (build Nov 23 2015 09:58:10) complex                        
  
 executed on             LinuxIFC date 2020.06.18  12:34:04
 running on   24 total cores
 distrk:  each k-point on   24 cores,    1 groups
 distr:  one band on NCORES_PER_BAND=   4 cores,    6 groups


--------------------------------------------------------------------------------------------------------


 INCAR:
 POTCAR:    PAW_PBE N 08Apr2002                   
 POTCAR:    PAW_PBE Pr_3 07Sep2000                
 POTCAR:    PAW_PBE N 08Apr2002                   
   VRHFIN =N: s2p3                                                              
   LEXCH  = PE                                                                  
   EATOM  =   264.5486 eV,   19.4438 Ry                                         
                                                                                
   TITEL  = PAW_PBE N 08Apr2002                                                 
   LULTRA =        F    use ultrasoft PP ?                                      
   IUNSCR =        1    unscreen: 0-lin 1-nonlin 2-no                           
   RPACOR =    1.200    partial core radius                                     
   POMASS =   14.001; ZVAL   =    5.000    mass and valenz                      
   RCORE  =    1.500    outmost cutoff radius                                   
   RWIGS  =    1.400; RWIGS  =    0.741    wigner-seitz radius (au A)           
   ENMAX  =  400.000; ENMIN  =  300.000 eV                                      
   ICORE  =        2    local potential                                         
   LCOR   =        T    correct aug charges                                     
   LPAW   =        T    paw PP                                                  
   EAUG   =  627.112                                                            
   DEXC   =    0.000                                                            
   RMAX   =    1.529    core radius for proj-oper                               
   RAUG   =    1.300    factor for augmentation sphere                          
   RDEP   =    1.514    radius for radial grids                                 
   RDEPT  =    1.338    core radius for aug-charge                              
                                                                                
   Atomic configuration                                                         
    4 entries                                                                   
     n  l   j            E        occ.                                          
     1  0  0.50      -384.7179   2.0000                                         
     2  0  0.50       -18.5828   2.0000                                         
     2  1  0.50        -7.0898   3.0000                                         
     3  2  1.50        -6.8029   0.0000                                         
   Description                                                                  
     l       E           TYP  RCUT    TYP  RCUT                                 
     0    -18.5828119     23  1.200                                             
     0    -13.5018863     23  1.200                                             
     1     -7.0897853     23  1.500                                             
     1      9.5240782     23  1.500                                             
     2     -6.8029130      7  1.500                                             
  local pseudopotential read in
  partial core-charges read in
  partial kinetic energy density read in
  atomic valenz-charges read in
  non local Contribution for L=           0  read in
    real space projection operators read in
  non local Contribution for L=           0  read in
    real space projection operators read in
  non local Contribution for L=           1  read in
    real space projection operators read in
  non local Contribution for L=           1  read in
    real space projection operators read in
    PAW grid and wavefunctions read in
 
   number of l-projection  operators is LMAX  =           4
   number of lm-projection operators is LMMAX =           8
 
 POTCAR:    PAW_PBE Pr_3 07Sep2000                
   VRHFIN =Pr : [core=Xe4]                                                      
   LEXCH  = PE                                                                  
   EATOM  =   912.8502 eV,   67.0926 Ry                                         
                                                                                
   TITEL  = PAW_PBE Pr_3 07Sep2000                                              
   LULTRA =        F    use ultrasoft PP ?                                      
   IUNSCR =        1    unscreen: 0-lin 1-nonlin 2-no                           
   RPACOR =    2.400    partial core radius                                     
   POMASS =  140.907; ZVAL   =   11.000    mass and valenz                      
   RCORE  =    2.800    outmost cutoff radius                                   
   RWIGS  =    3.100; RWIGS  =    1.640    wigner-seitz radius (au A)           
   ENMAX  =  181.719; ENMIN  =  136.289 eV                                      
   RCLOC  =    2.419    cutoff for local pot                                    
   LCOR   =        T    correct aug charges                                     
   LPAW   =        T    paw PP                                                  
   EAUG   =  303.718                                                            
   DEXC   =    0.000                                                            
   RMAX   =    2.867    core radius for proj-oper                               
   RAUG   =    1.300    factor for augmentation sphere                          
   RDEP   =    2.816    radius for radial grids                                 
   RDEPT  =    2.395    core radius for aug-charge                              
                                                                                
   Atomic configuration                                                         
   14 entries                                                                   
     n  l   j            E        occ.                                          
     1  0  0.50    -41810.3934   2.0000                                         
     2  0  0.50     -6731.1418   2.0000                                         
     2  1  1.50     -6022.4876   6.0000                                         
     3  0  0.50     -1458.2043   2.0000                                         
     3  1  1.50     -1233.8862   6.0000                                         
     3  2  2.50      -919.2566  10.0000                                         
     4  0  0.50      -295.2681   2.0000                                         
     4  1  1.50      -221.8430   6.0000                                         
     4  2  2.50      -116.8418  10.0000                                         
     4  3  2.50        -6.2311   2.0000                                         
     5  0  0.50       -42.1589   2.0000                                         
     6  0  0.50        -3.8068   2.0000                                         
     5  1  1.50       -23.9655   6.0000                                         
     5  2  2.50        -3.0008   1.0000                                         
   Description                                                                  
     l       E           TYP  RCUT    TYP  RCUT                                 
     0    -42.1589422     23  2.800                                             
     0     -3.8068346     23  2.800                                             
     1    -23.9655307     23  2.800                                             
     1     13.6058260     23  2.800                                             
     2     -3.0008139     23  2.800                                             
     2     -0.1733532     23  2.800                                             
  local pseudopotential read in
  partial core-charges read in
  partial kinetic energy density read in
  atomic valenz-charges read in
  non local Contribution for L=           0  read in
    real space projection operators read in
  non local Contribution for L=           0  read in
    real space projection operators read in
  non local Contribution for L=           1  read in
    real space projection operators read in
  non local Contribution for L=           1  read in
    real space projection operators read in
  non local Contribution for L=           2  read in
    real space projection operators read in
  non local Contribution for L=           2  read in
    real space projection operators read in
    PAW grid and wavefunctions read in
 
   number of l-projection  operators is LMAX  =           6
   number of lm-projection operators is LMMAX =          18
 
  PAW_PBE N 08Apr2002                   :
 energy of atom  1       EATOM= -264.5486
 kinetic energy error for atom=    0.0125 (will be added to EATOM!!)
  PAW_PBE Pr_3 07Sep2000                :
 energy of atom  2       EATOM= -912.8502
 kinetic energy error for atom=    0.0006 (will be added to EATOM!!)
 
 
 POSCAR: N1 Pr1                                  
  positions in direct lattice
  velocities in cartesian coordinates
 exchange correlation table for  LEXCH =        8
   RHO(1)=    0.500       N(1)  =     2000
   RHO(2)=  100.500       N(2)  =     4000
 


--------------------------------------------------------------------------------------------------------


 ion  position               nearest neighbor table
   1  0.500  0.500  0.500-   2 2.74   2 2.74   2 2.74   2 2.74   2 2.74   2 2.74   2 2.74   2 2.74

   2  0.000  0.000  0.000-   1 2.74   1 2.74   1 2.74   1 2.74   1 2.74   1 2.74   1 2.74   1 2.74

 
  LATTYP: Found a simple cubic cell.
 ALAT       =     3.1596607142
  
  Lattice vectors:
  
 A1 = (   3.1596607142,   0.0000000000,   0.0000000000)
 A2 = (   0.0000000000,   3.1596607142,   0.0000000000)
 A3 = (   0.0000000000,   0.0000000000,   3.1596607142)


Analysis of symmetry for initial positions (statically):
=====================================================================
 Subroutine PRICEL returns:
 Original cell was already a primitive cell.
 

 Routine SETGRP: Setting up the symmetry group for a 
 simple cubic supercell.


 Subroutine GETGRP returns: Found 48 space group operations
 (whereof 48 operations were pure point group operations)
 out of a pool of 48 trial point group operations.


The static configuration has the point symmetry O_h .


Analysis of symmetry for dynamics (positions and initial velocities):
=====================================================================
 Subroutine PRICEL returns:
 Original cell was already a primitive cell.
 

 Routine SETGRP: Setting up the symmetry group for a 
 simple cubic supercell.


 Subroutine GETGRP returns: Found 48 space group operations
 (whereof 48 operations were pure point group operations)
 out of a pool of 48 trial point group operations.


The dynamic configuration has the point symmetry O_h .
 
 
 KPOINTS: K-Mesh                                  

Automatic generation of k-mesh.
Space group operators:
 irot       det(A)        alpha          n_x          n_y          n_z        tau_x        tau_y        tau_z
    1     1.000000     0.000000     1.000000     0.000000     0.000000     0.000000     0.000000     0.000000
    2    -1.000000     0.000000     1.000000     0.000000     0.000000     0.000000     0.000000     0.000000
    3     1.000000   120.000000    -0.577350    -0.577350    -0.577350     0.000000     0.000000     0.000000
    4    -1.000000   120.000000    -0.577350    -0.577350    -0.577350     0.000000     0.000000     0.000000
    5     1.000000   120.000000     0.577350     0.577350     0.577350     0.000000     0.000000     0.000000
    6    -1.000000   120.000000     0.577350     0.577350     0.577350     0.000000     0.000000     0.000000
    7     1.000000    90.000000     0.000000     0.000000    -1.000000     0.000000     0.000000     0.000000
    8    -1.000000    90.000000     0.000000     0.000000    -1.000000     0.000000     0.000000     0.000000
    9     1.000000   180.000000     0.000000     0.707107     0.707107     0.000000     0.000000     0.000000
   10    -1.000000   180.000000     0.000000     0.707107     0.707107     0.000000     0.000000     0.000000
   11     1.000000    90.000000     0.000000     1.000000     0.000000     0.000000     0.000000     0.000000
   12    -1.000000    90.000000     0.000000     1.000000     0.000000     0.000000     0.000000     0.000000
   13     1.000000   180.000000     0.000000     0.000000     1.000000     0.000000     0.000000     0.000000
   14    -1.000000   180.000000     0.000000     0.000000     1.000000     0.000000     0.000000     0.000000
   15     1.000000   120.000000    -0.577350     0.577350     0.577350     0.000000     0.000000     0.000000
   16    -1.000000   120.000000    -0.577350     0.577350     0.577350     0.000000     0.000000     0.000000
   17     1.000000   120.000000    -0.577350     0.577350    -0.577350     0.000000     0.000000     0.000000
   18    -1.000000   120.000000    -0.577350     0.577350    -0.577350     0.000000     0.000000     0.000000
   19     1.000000    90.000000     0.000000     0.000000     1.000000     0.000000     0.000000     0.000000
   20    -1.000000    90.000000     0.000000     0.000000     1.000000     0.000000     0.000000     0.000000
   21     1.000000    90.000000    -1.000000     0.000000     0.000000     0.000000     0.000000     0.000000
   22    -1.000000    90.000000    -1.000000     0.000000     0.000000     0.000000     0.000000     0.000000
   23     1.000000   180.000000     0.707107     0.000000     0.707107     0.000000     0.000000     0.000000
   24    -1.000000   180.000000     0.707107     0.000000     0.707107     0.000000     0.000000     0.000000
   25     1.000000   120.000000     0.577350    -0.577350     0.577350     0.000000     0.000000     0.000000
   26    -1.000000   120.000000     0.577350    -0.577350     0.577350     0.000000     0.000000     0.000000
   27     1.000000   120.000000    -0.577350    -0.577350     0.577350     0.000000     0.000000     0.000000
   28    -1.000000   120.000000    -0.577350    -0.577350     0.577350     0.000000     0.000000     0.000000
   29     1.000000   180.000000     1.000000     0.000000     0.000000     0.000000     0.000000     0.000000
   30    -1.000000   180.000000     1.000000     0.000000     0.000000     0.000000     0.000000     0.000000
   31     1.000000    90.000000     0.000000    -1.000000     0.000000     0.000000     0.000000     0.000000
   32    -1.000000    90.000000     0.000000    -1.000000     0.000000     0.000000     0.000000     0.000000
   33     1.000000   180.000000     0.707107     0.707107     0.000000     0.000000     0.000000     0.000000
   34    -1.000000   180.000000     0.707107     0.707107     0.000000     0.000000     0.000000     0.000000
   35     1.000000    90.000000     1.000000     0.000000     0.000000     0.000000     0.000000     0.000000
   36    -1.000000    90.000000     1.000000     0.000000     0.000000     0.000000     0.000000     0.000000
   37     1.000000   120.000000     0.577350    -0.577350    -0.577350     0.000000     0.000000     0.000000
   38    -1.000000   120.000000     0.577350    -0.577350    -0.577350     0.000000     0.000000     0.000000
   39     1.000000   180.000000     0.000000     1.000000     0.000000     0.000000     0.000000     0.000000
   40    -1.000000   180.000000     0.000000     1.000000     0.000000     0.000000     0.000000     0.000000
   41     1.000000   120.000000     0.577350     0.577350    -0.577350     0.000000     0.000000     0.000000
   42    -1.000000   120.000000     0.577350     0.577350    -0.577350     0.000000     0.000000     0.000000
   43     1.000000   180.000000     0.000000    -0.707107     0.707107     0.000000     0.000000     0.000000
   44    -1.000000   180.000000     0.000000    -0.707107     0.707107     0.000000     0.000000     0.000000
   45     1.000000   180.000000     0.707107    -0.707107     0.000000     0.000000     0.000000     0.000000
   46    -1.000000   180.000000     0.707107    -0.707107     0.000000     0.000000     0.000000     0.000000
   47     1.000000   180.000000     0.707107     0.000000    -0.707107     0.000000     0.000000     0.000000
   48    -1.000000   180.000000     0.707107     0.000000    -0.707107     0.000000     0.000000     0.000000
 
 Subroutine IBZKPT returns following result:
 ===========================================
 
 Found    364 irreducible k-points:
 
 Following reciprocal coordinates:
            Coordinates               Weight
  0.000000  0.000000  0.000000      1.000000
  0.045455  0.000000  0.000000      6.000000
  0.090909  0.000000  0.000000      6.000000
  0.136364  0.000000  0.000000      6.000000
  0.181818  0.000000  0.000000      6.000000
  0.227273  0.000000  0.000000      6.000000
  0.272727  0.000000  0.000000      6.000000
  0.318182  0.000000  0.000000      6.000000
  0.363636  0.000000  0.000000      6.000000
  0.409091  0.000000  0.000000      6.000000
  0.454545  0.000000  0.000000      6.000000
  0.500000  0.000000  0.000000      3.000000
  0.045455  0.045455  0.000000     12.000000
  0.090909  0.045455  0.000000     24.000000
  0.136364  0.045455  0.000000     24.000000
  0.181818  0.045455  0.000000     24.000000
  0.227273  0.045455  0.000000     24.000000
  0.272727  0.045455  0.000000     24.000000
  0.318182  0.045455  0.000000     24.000000
  0.363636  0.045455  0.000000     24.000000
  0.409091  0.045455  0.000000     24.000000
  0.454545  0.045455  0.000000     24.000000
  0.500000  0.045455  0.000000     12.000000
  0.090909  0.090909  0.000000     12.000000
  0.136364  0.090909  0.000000     24.000000
  0.181818  0.090909  0.000000     24.000000
  0.227273  0.090909  0.000000     24.000000
  0.272727  0.090909  0.000000     24.000000
  0.318182  0.090909  0.000000     24.000000
  0.363636  0.090909  0.000000     24.000000
  0.409091  0.090909  0.000000     24.000000
  0.454545  0.090909  0.000000     24.000000
  0.500000  0.090909  0.000000     12.000000
  0.136364  0.136364  0.000000     12.000000
  0.181818  0.136364  0.000000     24.000000
  0.227273  0.136364  0.000000     24.000000
  0.272727  0.136364  0.000000     24.000000
  0.318182  0.136364  0.000000     24.000000
  0.363636  0.136364  0.000000     24.000000
  0.409091  0.136364  0.000000     24.000000
  0.454545  0.136364  0.000000     24.000000
  0.500000  0.136364  0.000000     12.000000
  0.181818  0.181818  0.000000     12.000000
  0.227273  0.181818  0.000000     24.000000
  0.272727  0.181818  0.000000     24.000000
  0.318182  0.181818  0.000000     24.000000
  0.363636  0.181818  0.000000     24.000000
  0.409091  0.181818  0.000000     24.000000
  0.454545  0.181818  0.000000     24.000000
  0.500000  0.181818  0.000000     12.000000
  0.227273  0.227273  0.000000     12.000000
  0.272727  0.227273  0.000000     24.000000
  0.318182  0.227273  0.000000     24.000000
  0.363636  0.227273  0.000000     24.000000
  0.409091  0.227273  0.000000     24.000000
  0.454545  0.227273  0.000000     24.000000
  0.500000  0.227273  0.000000     12.000000
  0.272727  0.272727  0.000000     12.000000
  0.318182  0.272727  0.000000     24.000000
  0.363636  0.272727  0.000000     24.000000
  0.409091  0.272727  0.000000     24.000000
  0.454545  0.272727  0.000000     24.000000
  0.500000  0.272727  0.000000     12.000000
  0.318182  0.318182  0.000000     12.000000
  0.363636  0.318182  0.000000     24.000000
  0.409091  0.318182  0.000000     24.000000
  0.454545  0.318182  0.000000     24.000000
  0.500000  0.318182  0.000000     12.000000
  0.363636  0.363636  0.000000     12.000000
  0.409091  0.363636  0.000000     24.000000
  0.454545  0.363636  0.000000     24.000000
  0.500000  0.363636  0.000000     12.000000
  0.409091  0.409091  0.000000     12.000000
  0.454545  0.409091  0.000000     24.000000
  0.500000  0.409091  0.000000     12.000000
  0.454545  0.454545  0.000000     12.000000
  0.500000  0.454545  0.000000     12.000000
  0.500000  0.500000  0.000000      3.000000
  0.045455  0.045455  0.045455      8.000000
  0.090909  0.045455  0.045455     24.000000
  0.136364  0.045455  0.045455     24.000000
  0.181818  0.045455  0.045455     24.000000
  0.227273  0.045455  0.045455     24.000000
  0.272727  0.045455  0.045455     24.000000
  0.318182  0.045455  0.045455     24.000000
  0.363636  0.045455  0.045455     24.000000
  0.409091  0.045455  0.045455     24.000000
  0.454545  0.045455  0.045455     24.000000
  0.500000  0.045455  0.045455     12.000000
  0.090909  0.090909  0.045455     24.000000
  0.136364  0.090909  0.045455     48.000000
  0.181818  0.090909  0.045455     48.000000
  0.227273  0.090909  0.045455     48.000000
  0.272727  0.090909  0.045455     48.000000
  0.318182  0.090909  0.045455     48.000000
  0.363636  0.090909  0.045455     48.000000
  0.409091  0.090909  0.045455     48.000000
  0.454545  0.090909  0.045455     48.000000
  0.500000  0.090909  0.045455     24.000000
  0.136364  0.136364  0.045455     24.000000
  0.181818  0.136364  0.045455     48.000000
  0.227273  0.136364  0.045455     48.000000
  0.272727  0.136364  0.045455     48.000000
  0.318182  0.136364  0.045455     48.000000
  0.363636  0.136364  0.045455     48.000000
  0.409091  0.136364  0.045455     48.000000
  0.454545  0.136364  0.045455     48.000000
  0.500000  0.136364  0.045455     24.000000
  0.181818  0.181818  0.045455     24.000000
  0.227273  0.181818  0.045455     48.000000
  0.272727  0.181818  0.045455     48.000000
  0.318182  0.181818  0.045455     48.000000
  0.363636  0.181818  0.045455     48.000000
  0.409091  0.181818  0.045455     48.000000
  0.454545  0.181818  0.045455     48.000000
  0.500000  0.181818  0.045455     24.000000
  0.227273  0.227273  0.045455     24.000000
  0.272727  0.227273  0.045455     48.000000
  0.318182  0.227273  0.045455     48.000000
  0.363636  0.227273  0.045455     48.000000
  0.409091  0.227273  0.045455     48.000000
  0.454545  0.227273  0.045455     48.000000
  0.500000  0.227273  0.045455     24.000000
  0.272727  0.272727  0.045455     24.000000
  0.318182  0.272727  0.045455     48.000000
  0.363636  0.272727  0.045455     48.000000
  0.409091  0.272727  0.045455     48.000000
  0.454545  0.272727  0.045455     48.000000
  0.500000  0.272727  0.045455     24.000000
  0.318182  0.318182  0.045455     24.000000
  0.363636  0.318182  0.045455     48.000000
  0.409091  0.318182  0.045455     48.000000
  0.454545  0.318182  0.045455     48.000000
  0.500000  0.318182  0.045455     24.000000
  0.363636  0.363636  0.045455     24.000000
  0.409091  0.363636  0.045455     48.000000
  0.454545  0.363636  0.045455     48.000000
  0.500000  0.363636  0.045455     24.000000
  0.409091  0.409091  0.045455     24.000000
  0.454545  0.409091  0.045455     48.000000
  0.500000  0.409091  0.045455     24.000000
  0.454545  0.454545  0.045455     24.000000
  0.500000  0.454545  0.045455     24.000000
  0.500000  0.500000  0.045455      6.000000
  0.090909  0.090909  0.090909      8.000000
  0.136364  0.090909  0.090909     24.000000
  0.181818  0.090909  0.090909     24.000000
  0.227273  0.090909  0.090909     24.000000
  0.272727  0.090909  0.090909     24.000000
  0.318182  0.090909  0.090909     24.000000
  0.363636  0.090909  0.090909     24.000000
  0.409091  0.090909  0.090909     24.000000
  0.454545  0.090909  0.090909     24.000000
  0.500000  0.090909  0.090909     12.000000
  0.136364  0.136364  0.090909     24.000000
  0.181818  0.136364  0.090909     48.000000
  0.227273  0.136364  0.090909     48.000000
  0.272727  0.136364  0.090909     48.000000
  0.318182  0.136364  0.090909     48.000000
  0.363636  0.136364  0.090909     48.000000
  0.409091  0.136364  0.090909     48.000000
  0.454545  0.136364  0.090909     48.000000
  0.500000  0.136364  0.090909     24.000000
  0.181818  0.181818  0.090909     24.000000
  0.227273  0.181818  0.090909     48.000000
  0.272727  0.181818  0.090909     48.000000
  0.318182  0.181818  0.090909     48.000000
  0.363636  0.181818  0.090909     48.000000
  0.409091  0.181818  0.090909     48.000000
  0.454545  0.181818  0.090909     48.000000
  0.500000  0.181818  0.090909     24.000000
  0.227273  0.227273  0.090909     24.000000
  0.272727  0.227273  0.090909     48.000000
  0.318182  0.227273  0.090909     48.000000
  0.363636  0.227273  0.090909     48.000000
  0.409091  0.227273  0.090909     48.000000
  0.454545  0.227273  0.090909     48.000000
  0.500000  0.227273  0.090909     24.000000
  0.272727  0.272727  0.090909     24.000000
  0.318182  0.272727  0.090909     48.000000
  0.363636  0.272727  0.090909     48.000000
  0.409091  0.272727  0.090909     48.000000
  0.454545  0.272727  0.090909     48.000000
  0.500000  0.272727  0.090909     24.000000
  0.318182  0.318182  0.090909     24.000000
  0.363636  0.318182  0.090909     48.000000
  0.409091  0.318182  0.090909     48.000000
  0.454545  0.318182  0.090909     48.000000
  0.500000  0.318182  0.090909     24.000000
  0.363636  0.363636  0.090909     24.000000
  0.409091  0.363636  0.090909     48.000000
  0.454545  0.363636  0.090909     48.000000
  0.500000  0.363636  0.090909     24.000000
  0.409091  0.409091  0.090909     24.000000
  0.454545  0.409091  0.090909     48.000000
  0.500000  0.409091  0.090909     24.000000
  0.454545  0.454545  0.090909     24.000000
  0.500000  0.454545  0.090909     24.000000
  0.500000  0.500000  0.090909      6.000000
  0.136364  0.136364  0.136364      8.000000
  0.181818  0.136364  0.136364     24.000000
  0.227273  0.136364  0.136364     24.000000
  0.272727  0.136364  0.136364     24.000000
  0.318182  0.136364  0.136364     24.000000
  0.363636  0.136364  0.136364     24.000000
  0.409091  0.136364  0.136364     24.000000
  0.454545  0.136364  0.136364     24.000000
  0.500000  0.136364  0.136364     12.000000
  0.181818  0.181818  0.136364     24.000000
  0.227273  0.181818  0.136364     48.000000
  0.272727  0.181818  0.136364     48.000000
  0.318182  0.181818  0.136364     48.000000
  0.363636  0.181818  0.136364     48.000000
  0.409091  0.181818  0.136364     48.000000
  0.454545  0.181818  0.136364     48.000000
  0.500000  0.181818  0.136364     24.000000
  0.227273  0.227273  0.136364     24.000000
  0.272727  0.227273  0.136364     48.000000
  0.318182  0.227273  0.136364     48.000000
  0.363636  0.227273  0.136364     48.000000
  0.409091  0.227273  0.136364     48.000000
  0.454545  0.227273  0.136364     48.000000
  0.500000  0.227273  0.136364     24.000000
  0.272727  0.272727  0.136364     24.000000
  0.318182  0.272727  0.136364     48.000000
  0.363636  0.272727  0.136364     48.000000
  0.409091  0.272727  0.136364     48.000000
  0.454545  0.272727  0.136364     48.000000
  0.500000  0.272727  0.136364     24.000000
  0.318182  0.318182  0.136364     24.000000
  0.363636  0.318182  0.136364     48.000000
  0.409091  0.318182  0.136364     48.000000
  0.454545  0.318182  0.136364     48.000000
  0.500000  0.318182  0.136364     24.000000
  0.363636  0.363636  0.136364     24.000000
  0.409091  0.363636  0.136364     48.000000
  0.454545  0.363636  0.136364     48.000000
  0.500000  0.363636  0.136364     24.000000
  0.409091  0.409091  0.136364     24.000000
  0.454545  0.409091  0.136364     48.000000
  0.500000  0.409091  0.136364     24.000000
  0.454545  0.454545  0.136364     24.000000
  0.500000  0.454545  0.136364     24.000000
  0.500000  0.500000  0.136364      6.000000
  0.181818  0.181818  0.181818      8.000000
  0.227273  0.181818  0.181818     24.000000
  0.272727  0.181818  0.181818     24.000000
  0.318182  0.181818  0.181818     24.000000
  0.363636  0.181818  0.181818     24.000000
  0.409091  0.181818  0.181818     24.000000
  0.454545  0.181818  0.181818     24.000000
  0.500000  0.181818  0.181818     12.000000
  0.227273  0.227273  0.181818     24.000000
  0.272727  0.227273  0.181818     48.000000
  0.318182  0.227273  0.181818     48.000000
  0.363636  0.227273  0.181818     48.000000
  0.409091  0.227273  0.181818     48.000000
  0.454545  0.227273  0.181818     48.000000
  0.500000  0.227273  0.181818     24.000000
  0.272727  0.272727  0.181818     24.000000
  0.318182  0.272727  0.181818     48.000000
  0.363636  0.272727  0.181818     48.000000
  0.409091  0.272727  0.181818     48.000000
  0.454545  0.272727  0.181818     48.000000
  0.500000  0.272727  0.181818     24.000000
  0.318182  0.318182  0.181818     24.000000
  0.363636  0.318182  0.181818     48.000000
  0.409091  0.318182  0.181818     48.000000
  0.454545  0.318182  0.181818     48.000000
  0.500000  0.318182  0.181818     24.000000
  0.363636  0.363636  0.181818     24.000000
  0.409091  0.363636  0.181818     48.000000
  0.454545  0.363636  0.181818     48.000000
  0.500000  0.363636  0.181818     24.000000
  0.409091  0.409091  0.181818     24.000000
  0.454545  0.409091  0.181818     48.000000
  0.500000  0.409091  0.181818     24.000000
  0.454545  0.454545  0.181818     24.000000
  0.500000  0.454545  0.181818     24.000000
  0.500000  0.500000  0.181818      6.000000
  0.227273  0.227273  0.227273      8.000000
  0.272727  0.227273  0.227273     24.000000
  0.318182  0.227273  0.227273     24.000000
  0.363636  0.227273  0.227273     24.000000
  0.409091  0.227273  0.227273     24.000000
  0.454545  0.227273  0.227273     24.000000
  0.500000  0.227273  0.227273     12.000000
  0.272727  0.272727  0.227273     24.000000
  0.318182  0.272727  0.227273     48.000000
  0.363636  0.272727  0.227273     48.000000
  0.409091  0.272727  0.227273     48.000000
  0.454545  0.272727  0.227273     48.000000
  0.500000  0.272727  0.227273     24.000000
  0.318182  0.318182  0.227273     24.000000
  0.363636  0.318182  0.227273     48.000000
  0.409091  0.318182  0.227273     48.000000
  0.454545  0.318182  0.227273     48.000000
  0.500000  0.318182  0.227273     24.000000
  0.363636  0.363636  0.227273     24.000000
  0.409091  0.363636  0.227273     48.000000
  0.454545  0.363636  0.227273     48.000000
  0.500000  0.363636  0.227273     24.000000
  0.409091  0.409091  0.227273     24.000000
  0.454545  0.409091  0.227273     48.000000
  0.500000  0.409091  0.227273     24.000000
  0.454545  0.454545  0.227273     24.000000
  0.500000  0.454545  0.227273     24.000000
  0.500000  0.500000  0.227273      6.000000
  0.272727  0.272727  0.272727      8.000000
  0.318182  0.272727  0.272727     24.000000
  0.363636  0.272727  0.272727     24.000000
  0.409091  0.272727  0.272727     24.000000
  0.454545  0.272727  0.272727     24.000000
  0.500000  0.272727  0.272727     12.000000
  0.318182  0.318182  0.272727     24.000000
  0.363636  0.318182  0.272727     48.000000
  0.409091  0.318182  0.272727     48.000000
  0.454545  0.318182  0.272727     48.000000
  0.500000  0.318182  0.272727     24.000000
  0.363636  0.363636  0.272727     24.000000
  0.409091  0.363636  0.272727     48.000000
  0.454545  0.363636  0.272727     48.000000
  0.500000  0.363636  0.272727     24.000000
  0.409091  0.409091  0.272727     24.000000
  0.454545  0.409091  0.272727     48.000000
  0.500000  0.409091  0.272727     24.000000
  0.454545  0.454545  0.272727     24.000000
  0.500000  0.454545  0.272727     24.000000
  0.500000  0.500000  0.272727      6.000000
  0.318182  0.318182  0.318182      8.000000
  0.363636  0.318182  0.318182     24.000000
  0.409091  0.318182  0.318182     24.000000
  0.454545  0.318182  0.318182     24.000000
  0.500000  0.318182  0.318182     12.000000
  0.363636  0.363636  0.318182     24.000000
  0.409091  0.363636  0.318182     48.000000
  0.454545  0.363636  0.318182     48.000000
  0.500000  0.363636  0.318182     24.000000
  0.409091  0.409091  0.318182     24.000000
  0.454545  0.409091  0.318182     48.000000
  0.500000  0.409091  0.318182     24.000000
  0.454545  0.454545  0.318182     24.000000
  0.500000  0.454545  0.318182     24.000000
  0.500000  0.500000  0.318182      6.000000
  0.363636  0.363636  0.363636      8.000000
  0.409091  0.363636  0.363636     24.000000
  0.454545  0.363636  0.363636     24.000000
  0.500000  0.363636  0.363636     12.000000
  0.409091  0.409091  0.363636     24.000000
  0.454545  0.409091  0.363636     48.000000
  0.500000  0.409091  0.363636     24.000000
  0.454545  0.454545  0.363636     24.000000
  0.500000  0.454545  0.363636     24.000000
  0.500000  0.500000  0.363636      6.000000
  0.409091  0.409091  0.409091      8.000000
  0.454545  0.409091  0.409091     24.000000
  0.500000  0.409091  0.409091     12.000000
  0.454545  0.454545  0.409091     24.000000
  0.500000  0.454545  0.409091     24.000000
  0.500000  0.500000  0.409091      6.000000
  0.454545  0.454545  0.454545      8.000000
  0.500000  0.454545  0.454545     12.000000
  0.500000  0.500000  0.454545      6.000000
  0.500000  0.500000  0.500000      1.000000
 
 Following cartesian coordinates:
            Coordinates               Weight
  0.000000  0.000000  0.000000      1.000000
  0.014386  0.000000  0.000000      6.000000
  0.028772  0.000000  0.000000      6.000000
  0.043158  0.000000  0.000000      6.000000
  0.057544  0.000000  0.000000      6.000000
  0.071929  0.000000  0.000000      6.000000
  0.086315  0.000000  0.000000      6.000000
  0.100701  0.000000  0.000000      6.000000
  0.115087  0.000000  0.000000      6.000000
  0.129473  0.000000  0.000000      6.000000
  0.143859  0.000000  0.000000      6.000000
  0.158245  0.000000  0.000000      3.000000
  0.014386  0.014386  0.000000     12.000000
  0.028772  0.014386  0.000000     24.000000
  0.043158  0.014386  0.000000     24.000000
  0.057544  0.014386  0.000000     24.000000
  0.071929  0.014386  0.000000     24.000000
  0.086315  0.014386  0.000000     24.000000
  0.100701  0.014386  0.000000     24.000000
  0.115087  0.014386  0.000000     24.000000
  0.129473  0.014386  0.000000     24.000000
  0.143859  0.014386  0.000000     24.000000
  0.158245  0.014386  0.000000     12.000000
  0.028772  0.028772  0.000000     12.000000
  0.043158  0.028772  0.000000     24.000000
  0.057544  0.028772  0.000000     24.000000
  0.071929  0.028772  0.000000     24.000000
  0.086315  0.028772  0.000000     24.000000
  0.100701  0.028772  0.000000     24.000000
  0.115087  0.028772  0.000000     24.000000
  0.129473  0.028772  0.000000     24.000000
  0.143859  0.028772  0.000000     24.000000
  0.158245  0.028772  0.000000     12.000000
  0.043158  0.043158  0.000000     12.000000
  0.057544  0.043158  0.000000     24.000000
  0.071929  0.043158  0.000000     24.000000
  0.086315  0.043158  0.000000     24.000000
  0.100701  0.043158  0.000000     24.000000
  0.115087  0.043158  0.000000     24.000000
  0.129473  0.043158  0.000000     24.000000
  0.143859  0.043158  0.000000     24.000000
  0.158245  0.043158  0.000000     12.000000
  0.057544  0.057544  0.000000     12.000000
  0.071929  0.057544  0.000000     24.000000
  0.086315  0.057544  0.000000     24.000000
  0.100701  0.057544  0.000000     24.000000
  0.115087  0.057544  0.000000     24.000000
  0.129473  0.057544  0.000000     24.000000
  0.143859  0.057544  0.000000     24.000000
  0.158245  0.057544  0.000000     12.000000
  0.071929  0.071929  0.000000     12.000000
  0.086315  0.071929  0.000000     24.000000
  0.100701  0.071929  0.000000     24.000000
  0.115087  0.071929  0.000000     24.000000
  0.129473  0.071929  0.000000     24.000000
  0.143859  0.071929  0.000000     24.000000
  0.158245  0.071929  0.000000     12.000000
  0.086315  0.086315  0.000000     12.000000
  0.100701  0.086315  0.000000     24.000000
  0.115087  0.086315  0.000000     24.000000
  0.129473  0.086315  0.000000     24.000000
  0.143859  0.086315  0.000000     24.000000
  0.158245  0.086315  0.000000     12.000000
  0.100701  0.100701  0.000000     12.000000
  0.115087  0.100701  0.000000     24.000000
  0.129473  0.100701  0.000000     24.000000
  0.143859  0.100701  0.000000     24.000000
  0.158245  0.100701  0.000000     12.000000
  0.115087  0.115087  0.000000     12.000000
  0.129473  0.115087  0.000000     24.000000
  0.143859  0.115087  0.000000     24.000000
  0.158245  0.115087  0.000000     12.000000
  0.129473  0.129473  0.000000     12.000000
  0.143859  0.129473  0.000000     24.000000
  0.158245  0.129473  0.000000     12.000000
  0.143859  0.143859  0.000000     12.000000
  0.158245  0.143859  0.000000     12.000000
  0.158245  0.158245  0.000000      3.000000
  0.014386  0.014386  0.014386      8.000000
  0.028772  0.014386  0.014386     24.000000
  0.043158  0.014386  0.014386     24.000000
  0.057544  0.014386  0.014386     24.000000
  0.071929  0.014386  0.014386     24.000000
  0.086315  0.014386  0.014386     24.000000
  0.100701  0.014386  0.014386     24.000000
  0.115087  0.014386  0.014386     24.000000
  0.129473  0.014386  0.014386     24.000000
  0.143859  0.014386  0.014386     24.000000
  0.158245  0.014386  0.014386     12.000000
  0.028772  0.028772  0.014386     24.000000
  0.043158  0.028772  0.014386     48.000000
  0.057544  0.028772  0.014386     48.000000
  0.071929  0.028772  0.014386     48.000000
  0.086315  0.028772  0.014386     48.000000
  0.100701  0.028772  0.014386     48.000000
  0.115087  0.028772  0.014386     48.000000
  0.129473  0.028772  0.014386     48.000000
  0.143859  0.028772  0.014386     48.000000
  0.158245  0.028772  0.014386     24.000000
  0.043158  0.043158  0.014386     24.000000
  0.057544  0.043158  0.014386     48.000000
  0.071929  0.043158  0.014386     48.000000
  0.086315  0.043158  0.014386     48.000000
  0.100701  0.043158  0.014386     48.000000
  0.115087  0.043158  0.014386     48.000000
  0.129473  0.043158  0.014386     48.000000
  0.143859  0.043158  0.014386     48.000000
  0.158245  0.043158  0.014386     24.000000
  0.057544  0.057544  0.014386     24.000000
  0.071929  0.057544  0.014386     48.000000
  0.086315  0.057544  0.014386     48.000000
  0.100701  0.057544  0.014386     48.000000
  0.115087  0.057544  0.014386     48.000000
  0.129473  0.057544  0.014386     48.000000
  0.143859  0.057544  0.014386     48.000000
  0.158245  0.057544  0.014386     24.000000
  0.071929  0.071929  0.014386     24.000000
  0.086315  0.071929  0.014386     48.000000
  0.100701  0.071929  0.014386     48.000000
  0.115087  0.071929  0.014386     48.000000
  0.129473  0.071929  0.014386     48.000000
  0.143859  0.071929  0.014386     48.000000
  0.158245  0.071929  0.014386     24.000000
  0.086315  0.086315  0.014386     24.000000
  0.100701  0.086315  0.014386     48.000000
  0.115087  0.086315  0.014386     48.000000
  0.129473  0.086315  0.014386     48.000000
  0.143859  0.086315  0.014386     48.000000
  0.158245  0.086315  0.014386     24.000000
  0.100701  0.100701  0.014386     24.000000
  0.115087  0.100701  0.014386     48.000000
  0.129473  0.100701  0.014386     48.000000
  0.143859  0.100701  0.014386     48.000000
  0.158245  0.100701  0.014386     24.000000
  0.115087  0.115087  0.014386     24.000000
  0.129473  0.115087  0.014386     48.000000
  0.143859  0.115087  0.014386     48.000000
  0.158245  0.115087  0.014386     24.000000
  0.129473  0.129473  0.014386     24.000000
  0.143859  0.129473  0.014386     48.000000
  0.158245  0.129473  0.014386     24.000000
  0.143859  0.143859  0.014386     24.000000
  0.158245  0.143859  0.014386     24.000000
  0.158245  0.158245  0.014386      6.000000
  0.028772  0.028772  0.028772      8.000000
  0.043158  0.028772  0.028772     24.000000
  0.057544  0.028772  0.028772     24.000000
  0.071929  0.028772  0.028772     24.000000
  0.086315  0.028772  0.028772     24.000000
  0.100701  0.028772  0.028772     24.000000
  0.115087  0.028772  0.028772     24.000000
  0.129473  0.028772  0.028772     24.000000
  0.143859  0.028772  0.028772     24.000000
  0.158245  0.028772  0.028772     12.000000
  0.043158  0.043158  0.028772     24.000000
  0.057544  0.043158  0.028772     48.000000
  0.071929  0.043158  0.028772     48.000000
  0.086315  0.043158  0.028772     48.000000
  0.100701  0.043158  0.028772     48.000000
  0.115087  0.043158  0.028772     48.000000
  0.129473  0.043158  0.028772     48.000000
  0.143859  0.043158  0.028772     48.000000
  0.158245  0.043158  0.028772     24.000000
  0.057544  0.057544  0.028772     24.000000
  0.071929  0.057544  0.028772     48.000000
  0.086315  0.057544  0.028772     48.000000
  0.100701  0.057544  0.028772     48.000000
  0.115087  0.057544  0.028772     48.000000
  0.129473  0.057544  0.028772     48.000000
  0.143859  0.057544  0.028772     48.000000
  0.158245  0.057544  0.028772     24.000000
  0.071929  0.071929  0.028772     24.000000
  0.086315  0.071929  0.028772     48.000000
  0.100701  0.071929  0.028772     48.000000
  0.115087  0.071929  0.028772     48.000000
  0.129473  0.071929  0.028772     48.000000
  0.143859  0.071929  0.028772     48.000000
  0.158245  0.071929  0.028772     24.000000
  0.086315  0.086315  0.028772     24.000000
  0.100701  0.086315  0.028772     48.000000
  0.115087  0.086315  0.028772     48.000000
  0.129473  0.086315  0.028772     48.000000
  0.143859  0.086315  0.028772     48.000000
  0.158245  0.086315  0.028772     24.000000
  0.100701  0.100701  0.028772     24.000000
  0.115087  0.100701  0.028772     48.000000
  0.129473  0.100701  0.028772     48.000000
  0.143859  0.100701  0.028772     48.000000
  0.158245  0.100701  0.028772     24.000000
  0.115087  0.115087  0.028772     24.000000
  0.129473  0.115087  0.028772     48.000000
  0.143859  0.115087  0.028772     48.000000
  0.158245  0.115087  0.028772     24.000000
  0.129473  0.129473  0.028772     24.000000
  0.143859  0.129473  0.028772     48.000000
  0.158245  0.129473  0.028772     24.000000
  0.143859  0.143859  0.028772     24.000000
  0.158245  0.143859  0.028772     24.000000
  0.158245  0.158245  0.028772      6.000000
  0.043158  0.043158  0.043158      8.000000
  0.057544  0.043158  0.043158     24.000000
  0.071929  0.043158  0.043158     24.000000
  0.086315  0.043158  0.043158     24.000000
  0.100701  0.043158  0.043158     24.000000
  0.115087  0.043158  0.043158     24.000000
  0.129473  0.043158  0.043158     24.000000
  0.143859  0.043158  0.043158     24.000000
  0.158245  0.043158  0.043158     12.000000
  0.057544  0.057544  0.043158     24.000000
  0.071929  0.057544  0.043158     48.000000
  0.086315  0.057544  0.043158     48.000000
  0.100701  0.057544  0.043158     48.000000
  0.115087  0.057544  0.043158     48.000000
  0.129473  0.057544  0.043158     48.000000
  0.143859  0.057544  0.043158     48.000000
  0.158245  0.057544  0.043158     24.000000
  0.071929  0.071929  0.043158     24.000000
  0.086315  0.071929  0.043158     48.000000
  0.100701  0.071929  0.043158     48.000000
  0.115087  0.071929  0.043158     48.000000
  0.129473  0.071929  0.043158     48.000000
  0.143859  0.071929  0.043158     48.000000
  0.158245  0.071929  0.043158     24.000000
  0.086315  0.086315  0.043158     24.000000
  0.100701  0.086315  0.043158     48.000000
  0.115087  0.086315  0.043158     48.000000
  0.129473  0.086315  0.043158     48.000000
  0.143859  0.086315  0.043158     48.000000
  0.158245  0.086315  0.043158     24.000000
  0.100701  0.100701  0.043158     24.000000
  0.115087  0.100701  0.043158     48.000000
  0.129473  0.100701  0.043158     48.000000
  0.143859  0.100701  0.043158     48.000000
  0.158245  0.100701  0.043158     24.000000
  0.115087  0.115087  0.043158     24.000000
  0.129473  0.115087  0.043158     48.000000
  0.143859  0.115087  0.043158     48.000000
  0.158245  0.115087  0.043158     24.000000
  0.129473  0.129473  0.043158     24.000000
  0.143859  0.129473  0.043158     48.000000
  0.158245  0.129473  0.043158     24.000000
  0.143859  0.143859  0.043158     24.000000
  0.158245  0.143859  0.043158     24.000000
  0.158245  0.158245  0.043158      6.000000
  0.057544  0.057544  0.057544      8.000000
  0.071929  0.057544  0.057544     24.000000
  0.086315  0.057544  0.057544     24.000000
  0.100701  0.057544  0.057544     24.000000
  0.115087  0.057544  0.057544     24.000000
  0.129473  0.057544  0.057544     24.000000
  0.143859  0.057544  0.057544     24.000000
  0.158245  0.057544  0.057544     12.000000
  0.071929  0.071929  0.057544     24.000000
  0.086315  0.071929  0.057544     48.000000
  0.100701  0.071929  0.057544     48.000000
  0.115087  0.071929  0.057544     48.000000
  0.129473  0.071929  0.057544     48.000000
  0.143859  0.071929  0.057544     48.000000
  0.158245  0.071929  0.057544     24.000000
  0.086315  0.086315  0.057544     24.000000
  0.100701  0.086315  0.057544     48.000000
  0.115087  0.086315  0.057544     48.000000
  0.129473  0.086315  0.057544     48.000000
  0.143859  0.086315  0.057544     48.000000
  0.158245  0.086315  0.057544     24.000000
  0.100701  0.100701  0.057544     24.000000
  0.115087  0.100701  0.057544     48.000000
  0.129473  0.100701  0.057544     48.000000
  0.143859  0.100701  0.057544     48.000000
  0.158245  0.100701  0.057544     24.000000
  0.115087  0.115087  0.057544     24.000000
  0.129473  0.115087  0.057544     48.000000
  0.143859  0.115087  0.057544     48.000000
  0.158245  0.115087  0.057544     24.000000
  0.129473  0.129473  0.057544     24.000000
  0.143859  0.129473  0.057544     48.000000
  0.158245  0.129473  0.057544     24.000000
  0.143859  0.143859  0.057544     24.000000
  0.158245  0.143859  0.057544     24.000000
  0.158245  0.158245  0.057544      6.000000
  0.071929  0.071929  0.071929      8.000000
  0.086315  0.071929  0.071929     24.000000
  0.100701  0.071929  0.071929     24.000000
  0.115087  0.071929  0.071929     24.000000
  0.129473  0.071929  0.071929     24.000000
  0.143859  0.071929  0.071929     24.000000
  0.158245  0.071929  0.071929     12.000000
  0.086315  0.086315  0.071929     24.000000
  0.100701  0.086315  0.071929     48.000000
  0.115087  0.086315  0.071929     48.000000
  0.129473  0.086315  0.071929     48.000000
  0.143859  0.086315  0.071929     48.000000
  0.158245  0.086315  0.071929     24.000000
  0.100701  0.100701  0.071929     24.000000
  0.115087  0.100701  0.071929     48.000000
  0.129473  0.100701  0.071929     48.000000
  0.143859  0.100701  0.071929     48.000000
  0.158245  0.100701  0.071929     24.000000
  0.115087  0.115087  0.071929     24.000000
  0.129473  0.115087  0.071929     48.000000
  0.143859  0.115087  0.071929     48.000000
  0.158245  0.115087  0.071929     24.000000
  0.129473  0.129473  0.071929     24.000000
  0.143859  0.129473  0.071929     48.000000
  0.158245  0.129473  0.071929     24.000000
  0.143859  0.143859  0.071929     24.000000
  0.158245  0.143859  0.071929     24.000000
  0.158245  0.158245  0.071929      6.000000
  0.086315  0.086315  0.086315      8.000000
  0.100701  0.086315  0.086315     24.000000
  0.115087  0.086315  0.086315     24.000000
  0.129473  0.086315  0.086315     24.000000
  0.143859  0.086315  0.086315     24.000000
  0.158245  0.086315  0.086315     12.000000
  0.100701  0.100701  0.086315     24.000000
  0.115087  0.100701  0.086315     48.000000
  0.129473  0.100701  0.086315     48.000000
  0.143859  0.100701  0.086315     48.000000
  0.158245  0.100701  0.086315     24.000000
  0.115087  0.115087  0.086315     24.000000
  0.129473  0.115087  0.086315     48.000000
  0.143859  0.115087  0.086315     48.000000
  0.158245  0.115087  0.086315     24.000000
  0.129473  0.129473  0.086315     24.000000
  0.143859  0.129473  0.086315     48.000000
  0.158245  0.129473  0.086315     24.000000
  0.143859  0.143859  0.086315     24.000000
  0.158245  0.143859  0.086315     24.000000
  0.158245  0.158245  0.086315      6.000000
  0.100701  0.100701  0.100701      8.000000
  0.115087  0.100701  0.100701     24.000000
  0.129473  0.100701  0.100701     24.000000
  0.143859  0.100701  0.100701     24.000000
  0.158245  0.100701  0.100701     12.000000
  0.115087  0.115087  0.100701     24.000000
  0.129473  0.115087  0.100701     48.000000
  0.143859  0.115087  0.100701     48.000000
  0.158245  0.115087  0.100701     24.000000
  0.129473  0.129473  0.100701     24.000000
  0.143859  0.129473  0.100701     48.000000
  0.158245  0.129473  0.100701     24.000000
  0.143859  0.143859  0.100701     24.000000
  0.158245  0.143859  0.100701     24.000000
  0.158245  0.158245  0.100701      6.000000
  0.115087  0.115087  0.115087      8.000000
  0.129473  0.115087  0.115087     24.000000
  0.143859  0.115087  0.115087     24.000000
  0.158245  0.115087  0.115087     12.000000
  0.129473  0.129473  0.115087     24.000000
  0.143859  0.129473  0.115087     48.000000
  0.158245  0.129473  0.115087     24.000000
  0.143859  0.143859  0.115087     24.000000
  0.158245  0.143859  0.115087     24.000000
  0.158245  0.158245  0.115087      6.000000
  0.129473  0.129473  0.129473      8.000000
  0.143859  0.129473  0.129473     24.000000
  0.158245  0.129473  0.129473     12.000000
  0.143859  0.143859  0.129473     24.000000
  0.158245  0.143859  0.129473     24.000000
  0.158245  0.158245  0.129473      6.000000
  0.143859  0.143859  0.143859      8.000000
  0.158245  0.143859  0.143859     12.000000
  0.158245  0.158245  0.143859      6.000000
  0.158245  0.158245  0.158245      1.000000
 


--------------------------------------------------------------------------------------------------------




 Dimension of arrays:
   k-points           NKPTS =    364   k-points in BZ     NKDIM =    364   number of bands    NBANDS=     12
   number of dos      NEDOS =    301   number of ions     NIONS =      2
   non local maximal  LDIM  =      6   non local SUM 2l+1 LMDIM =     18
   total plane-waves  NPLWV =  13824
   max r-space proj   IRMAX =      1   max aug-charges    IRDMAX= 273012
   dimension x,y,z NGX =    24 NGY =   24 NGZ =   24
   dimension x,y,z NGXF=    48 NGYF=   48 NGZF=   48
   support grid    NGXF=    96 NGYF=   96 NGZF=   96
   ions per type =               1   1
 NGX,Y,Z   is equivalent  to a cutoff of  12.63, 12.63, 12.63 a.u.
 NGXF,Y,Z  is equivalent  to a cutoff of  25.26, 25.26, 25.26 a.u.


 I would recommend the setting:
   dimension x,y,z NGX =    23 NGY =   23 NGZ =   23
 SYSTEM =  matgen-scf                              
 POSCAR =  N1 Pr1                                  

 Startparameter for this run:
   NWRITE =      2    write-flag & timer
   PREC   = accura    normal or accurate (medium, high low for compatibility)
   ISTART =      0    job   : 0-new  1-cont  2-samecut
   ICHARG =      2    charge: 1-file 2-atom 10-const
   ISPIN  =      1    spin polarized calculation?
   LNONCOLLINEAR =      F non collinear calculations
   LSORBIT =      F    spin-orbit coupling
   INIWAV =      1    electr: 0-lowe 1-rand  2-diag
   LASPH  =      F    aspherical Exc in radial PAW
   METAGGA=      F    non-selfconsistent MetaGGA calc.

 Electronic Relaxation 1
   ENCUT  =  520.0 eV  38.22 Ry    6.18 a.u.   5.87  5.87  5.87*2*pi/ulx,y,z
   ENINI  =  520.0     initial cutoff
   ENAUG  =  627.1 eV  augmentation charge cutoff
   NELM   =    140;   NELMIN=  6; NELMDL= -5     # of ELM steps 
   EDIFF  = 0.1E-03   stopping-criterion for ELM
   LREAL  =      F    real-space projection
   NLSPLINE    = F    spline interpolate recip. space projectors
   LCOMPAT=      F    compatible to vasp.4.4
   GGA_COMPAT  = T    GGA compatible to vasp.4.4-vasp.4.6
   LMAXPAW     = -100 max onsite density
   LMAXMIX     =    6 max onsite mixed and CHGCAR
   VOSKOWN=      0    Vosko Wilk Nusair interpolation
   ROPT   =    0.00000   0.00000
 Ionic relaxation
   EDIFFG = -.1E-01   stopping-criterion for IOM
   NSW    =      0    number of steps for IOM
   NBLOCK =      1;   KBLOCK =      1    inner block; outer block 
   IBRION =     -1    ionic relax: 0-MD 1-quasi-New 2-CG
   NFREE  =      0    steps in history (QN), initial steepest desc. (CG)
   ISIF   =      2    stress and relaxation
   IWAVPR =     10    prediction:  0-non 1-charg 2-wave 3-comb
   ISYM   =      2    0-nonsym 1-usesym 2-fastsym
   LCORR  =      T    Harris-Foulkes like correction to forces

   POTIM  = 0.0500    time-step for ionic-motion
   TEIN   =    0.0    initial temperature
   TEBEG  =    0.0;   TEEND  =   0.0 temperature during run
   SMASS  =  -3.00    Nose mass-parameter (am)
   estimated Nose-frequenzy (Omega)   =  0.10E-29 period in steps =****** mass=  -0.228E-27a.u.
   SCALEE = 1.0000    scale energy and forces
   NPACO  =    256;   APACO  = 16.0  distance and # of slots for P.C.
   PSTRESS=    0.0 pullay stress

  Mass of Ions in am
   POMASS =  14.00140.91
  Ionic Valenz
   ZVAL   =   5.00 11.00
  Atomic Wigner-Seitz radii
   RWIGS  =  -1.00 -1.00
  virtual crystal weights 
   VCA    =   1.00  1.00
   NELECT =      16.0000    total number of electrons
   NUPDOWN=      -1.0000    fix difference up-down

 DOS related values:
   EMIN   =  10.00;   EMAX   =-10.00  energy-range for DOS
   EFERMI =   0.00
   ISMEAR =     0;   SIGMA  =   0.05  broadening in eV -4-tet -1-fermi 0-gaus

 Electronic relaxation 2 (details)
   IALGO  =     38    algorithm
   LDIAG  =      T    sub-space diagonalisation (order eigenvalues)
   LSUBROT=      F    optimize rotation matrix (better conditioning)
   TURBO    =      0    0=normal 1=particle mesh
   IRESTART =      0    0=no restart 2=restart with 2 vectors
   NREBOOT  =      0    no. of reboots
   NMIN     =      0    reboot dimension
   EREF     =   0.00    reference energy to select bands
   IMIX   =      4    mixing-type and parameters
     AMIX     =   0.10;   BMIX     =  1.20
     AMIX_MAG =   0.40;   BMIX_MAG =  1.20
     AMIN     =   0.10
     WC   =   100.;   INIMIX=   1;  MIXPRE=   1;  MAXMIX= -45

 Intra band minimization:
   WEIMIN = 0.0000     energy-eigenvalue tresh-hold
   EBREAK =  0.21E-05  absolut break condition
   DEPER  =   0.30     relativ break condition  

   TIME   =   0.40     timestep for ELM

  volume/ion in A,a.u.               =      15.77       106.44
  Fermi-wavevector in a.u.,A,eV,Ry     =   1.305593  2.467212 23.192114  1.704572
  Thomas-Fermi vector in A             =   2.436451
 
 Write flags
   LWAVE  =      F    write WAVECAR
   LCHARG =      T    write CHGCAR
   LVTOT  =      F    write LOCPOT, total local potential
   LVHAR  =      F    write LOCPOT, Hartree potential only
   LELF   =      F    write electronic localiz. function (ELF)
   LORBIT =     11    0 simple, 1 ext, 2 COOP (PROOUT)


 Dipole corrections
   LMONO  =      F    monopole corrections only (constant potential shift)
   LDIPOL =      F    correct potential (dipole corrections)
   IDIPOL =      0    1-x, 2-y, 3-z, 4-all directions 
   EPSILON=  1.0000000 bulk dielectric constant

 LDA+U is selected, type is set to LDAUTYPE =  2
   angular momentum for each species LDAUL =    -1    3
   U (eV)           for each species LDAUU =   0.0  5.5
   J (eV)           for each species LDAUJ =   0.0  0.0
 Exchange correlation treatment:
   GGA     =    --    GGA type
   LEXCH   =     8    internal setting for exchange type
   VOSKOWN=      0    Vosko Wilk Nusair interpolation
   LHFCALC =     F    Hartree Fock is set to
   LHFONE  =     F    Hartree Fock one center treatment
   AEXX    =    0.0000 exact exchange contribution

 Linear response parameters
   LEPSILON=     F    determine dielectric tensor
   LRPA    =     F    only Hartree local field effects (RPA)
   LNABLA  =     F    use nabla operator in PAW spheres
   LVEL    =     F    velocity operator in full k-point grid
   LINTERFAST=   F  fast interpolation
   KINTER  =     0    interpolate to denser k-point grid
   CSHIFT  =0.1000    complex shift for real part using Kramers Kronig
   OMEGAMAX=  -1.0    maximum frequency
   DEG_THRESHOLD= 0.2000000E-02 threshold for treating states as degnerate
   RTIME   =    0.100 relaxation time in fs

 Orbital magnetization related:
   ORBITALMAG=     F  switch on orbital magnetization
   LCHIMAG   =     F  perturbation theory with respect to B field
   DQ        =  0.001000  dq finite difference perturbation B field



--------------------------------------------------------------------------------------------------------


 Static calculation
 charge density and potential will be updated during run
 non-spin polarized calculation
 Variant of blocked Davidson
 Davidson routine will perform the subspace rotation
 perform sub-space diagonalisation
    after iterative eigenvector-optimisation
 modified Broyden-mixing scheme, WC =      100.0
 initial mixing is a Kerker type mixing with AMIX =  0.1000 and BMIX =      1.2000
 Hartree-type preconditioning will be used
 using additional bands            4
 reciprocal scheme for non local part
 use partial core corrections
 calculate Harris-corrections to forces 
   (improved forces if not selfconsistent)
 use gradient corrections 
 use of overlap-Matrix (Vanderbilt PP)
 Gauss-broadening in eV      SIGMA  =   0.05


--------------------------------------------------------------------------------------------------------


  energy-cutoff  :      520.00
  volume of cell :       31.54
      direct lattice vectors                 reciprocal lattice vectors
     3.159660714  0.000000000  0.000000000     0.316489677  0.000000000  0.000000000
     0.000000000  3.159660714  0.000000000     0.000000000  0.316489677  0.000000000
     0.000000000  0.000000000  3.159660714     0.000000000  0.000000000  0.316489677

  length of vectors
     3.159660714  3.159660714  3.159660714     0.316489677  0.316489677  0.316489677


 
 k-points in units of 2pi/SCALE and weight: K-Mesh                                  
   0.00000000  0.00000000  0.00000000       0.000
   0.01438589  0.00000000  0.00000000       0.001
   0.02877179  0.00000000  0.00000000       0.001
   0.04315768  0.00000000  0.00000000       0.001
   0.05754358  0.00000000  0.00000000       0.001
   0.07192947  0.00000000  0.00000000       0.001
   0.08631537  0.00000000  0.00000000       0.001
   0.10070126  0.00000000  0.00000000       0.001
   0.11508716  0.00000000  0.00000000       0.001
   0.12947305  0.00000000  0.00000000       0.001
   0.14385894  0.00000000  0.00000000       0.001
   0.15824484  0.00000000  0.00000000       0.000
   0.01438589  0.01438589  0.00000000       0.001
   0.02877179  0.01438589  0.00000000       0.002
   0.04315768  0.01438589  0.00000000       0.002
   0.05754358  0.01438589  0.00000000       0.002
   0.07192947  0.01438589  0.00000000       0.002
   0.08631537  0.01438589  0.00000000       0.002
   0.10070126  0.01438589  0.00000000       0.002
   0.11508716  0.01438589  0.00000000       0.002
   0.12947305  0.01438589  0.00000000       0.002
   0.14385894  0.01438589  0.00000000       0.002
   0.15824484  0.01438589  0.00000000       0.001
   0.02877179  0.02877179  0.00000000       0.001
   0.04315768  0.02877179  0.00000000       0.002
   0.05754358  0.02877179  0.00000000       0.002
   0.07192947  0.02877179  0.00000000       0.002
   0.08631537  0.02877179  0.00000000       0.002
   0.10070126  0.02877179  0.00000000       0.002
   0.11508716  0.02877179  0.00000000       0.002
   0.12947305  0.02877179  0.00000000       0.002
   0.14385894  0.02877179  0.00000000       0.002
   0.15824484  0.02877179  0.00000000       0.001
   0.04315768  0.04315768  0.00000000       0.001
   0.05754358  0.04315768  0.00000000       0.002
   0.07192947  0.04315768  0.00000000       0.002
   0.08631537  0.04315768  0.00000000       0.002
   0.10070126  0.04315768  0.00000000       0.002
   0.11508716  0.04315768  0.00000000       0.002
   0.12947305  0.04315768  0.00000000       0.002
   0.14385894  0.04315768  0.00000000       0.002
   0.15824484  0.04315768  0.00000000       0.001
   0.05754358  0.05754358  0.00000000       0.001
   0.07192947  0.05754358  0.00000000       0.002
   0.08631537  0.05754358  0.00000000       0.002
   0.10070126  0.05754358  0.00000000       0.002
   0.11508716  0.05754358  0.00000000       0.002
   0.12947305  0.05754358  0.00000000       0.002
   0.14385894  0.05754358  0.00000000       0.002
   0.15824484  0.05754358  0.00000000       0.001
   0.07192947  0.07192947  0.00000000       0.001
   0.08631537  0.07192947  0.00000000       0.002
   0.10070126  0.07192947  0.00000000       0.002
   0.11508716  0.07192947  0.00000000       0.002
   0.12947305  0.07192947  0.00000000       0.002
   0.14385894  0.07192947  0.00000000       0.002
   0.15824484  0.07192947  0.00000000       0.001
   0.08631537  0.08631537  0.00000000       0.001
   0.10070126  0.08631537  0.00000000       0.002
   0.11508716  0.08631537  0.00000000       0.002
   0.12947305  0.08631537  0.00000000       0.002
   0.14385894  0.08631537  0.00000000       0.002
   0.15824484  0.08631537  0.00000000       0.001
   0.10070126  0.10070126  0.00000000       0.001
   0.11508716  0.10070126  0.00000000       0.002
   0.12947305  0.10070126  0.00000000       0.002
   0.14385894  0.10070126  0.00000000       0.002
   0.15824484  0.10070126  0.00000000       0.001
   0.11508716  0.11508716  0.00000000       0.001
   0.12947305  0.11508716  0.00000000       0.002
   0.14385894  0.11508716  0.00000000       0.002
   0.15824484  0.11508716  0.00000000       0.001
   0.12947305  0.12947305  0.00000000       0.001
   0.14385894  0.12947305  0.00000000       0.002
   0.15824484  0.12947305  0.00000000       0.001
   0.14385894  0.14385894  0.00000000       0.001
   0.15824484  0.14385894  0.00000000       0.001
   0.15824484  0.15824484  0.00000000       0.000
   0.01438589  0.01438589  0.01438589       0.001
   0.02877179  0.01438589  0.01438589       0.002
   0.04315768  0.01438589  0.01438589       0.002
   0.05754358  0.01438589  0.01438589       0.002
   0.07192947  0.01438589  0.01438589       0.002
   0.08631537  0.01438589  0.01438589       0.002
   0.10070126  0.01438589  0.01438589       0.002
   0.11508716  0.01438589  0.01438589       0.002
   0.12947305  0.01438589  0.01438589       0.002
   0.14385894  0.01438589  0.01438589       0.002
   0.15824484  0.01438589  0.01438589       0.001
   0.02877179  0.02877179  0.01438589       0.002
   0.04315768  0.02877179  0.01438589       0.005
   0.05754358  0.02877179  0.01438589       0.005
   0.07192947  0.02877179  0.01438589       0.005
   0.08631537  0.02877179  0.01438589       0.005
   0.10070126  0.02877179  0.01438589       0.005
   0.11508716  0.02877179  0.01438589       0.005
   0.12947305  0.02877179  0.01438589       0.005
   0.14385894  0.02877179  0.01438589       0.005
   0.15824484  0.02877179  0.01438589       0.002
   0.04315768  0.04315768  0.01438589       0.002
   0.05754358  0.04315768  0.01438589       0.005
   0.07192947  0.04315768  0.01438589       0.005
   0.08631537  0.04315768  0.01438589       0.005
   0.10070126  0.04315768  0.01438589       0.005
   0.11508716  0.04315768  0.01438589       0.005
   0.12947305  0.04315768  0.01438589       0.005
   0.14385894  0.04315768  0.01438589       0.005
   0.15824484  0.04315768  0.01438589       0.002
   0.05754358  0.05754358  0.01438589       0.002
   0.07192947  0.05754358  0.01438589       0.005
   0.08631537  0.05754358  0.01438589       0.005
   0.10070126  0.05754358  0.01438589       0.005
   0.11508716  0.05754358  0.01438589       0.005
   0.12947305  0.05754358  0.01438589       0.005
   0.14385894  0.05754358  0.01438589       0.005
   0.15824484  0.05754358  0.01438589       0.002
   0.07192947  0.07192947  0.01438589       0.002
   0.08631537  0.07192947  0.01438589       0.005
   0.10070126  0.07192947  0.01438589       0.005
   0.11508716  0.07192947  0.01438589       0.005
   0.12947305  0.07192947  0.01438589       0.005
   0.14385894  0.07192947  0.01438589       0.005
   0.15824484  0.07192947  0.01438589       0.002
   0.08631537  0.08631537  0.01438589       0.002
   0.10070126  0.08631537  0.01438589       0.005
   0.11508716  0.08631537  0.01438589       0.005
   0.12947305  0.08631537  0.01438589       0.005
   0.14385894  0.08631537  0.01438589       0.005
   0.15824484  0.08631537  0.01438589       0.002
   0.10070126  0.10070126  0.01438589       0.002
   0.11508716  0.10070126  0.01438589       0.005
   0.12947305  0.10070126  0.01438589       0.005
   0.14385894  0.10070126  0.01438589       0.005
   0.15824484  0.10070126  0.01438589       0.002
   0.11508716  0.11508716  0.01438589       0.002
   0.12947305  0.11508716  0.01438589       0.005
   0.14385894  0.11508716  0.01438589       0.005
   0.15824484  0.11508716  0.01438589       0.002
   0.12947305  0.12947305  0.01438589       0.002
   0.14385894  0.12947305  0.01438589       0.005
   0.15824484  0.12947305  0.01438589       0.002
   0.14385894  0.14385894  0.01438589       0.002
   0.15824484  0.14385894  0.01438589       0.002
   0.15824484  0.15824484  0.01438589       0.001
   0.02877179  0.02877179  0.02877179       0.001
   0.04315768  0.02877179  0.02877179       0.002
   0.05754358  0.02877179  0.02877179       0.002
   0.07192947  0.02877179  0.02877179       0.002
   0.08631537  0.02877179  0.02877179       0.002
   0.10070126  0.02877179  0.02877179       0.002
   0.11508716  0.02877179  0.02877179       0.002
   0.12947305  0.02877179  0.02877179       0.002
   0.14385894  0.02877179  0.02877179       0.002
   0.15824484  0.02877179  0.02877179       0.001
   0.04315768  0.04315768  0.02877179       0.002
   0.05754358  0.04315768  0.02877179       0.005
   0.07192947  0.04315768  0.02877179       0.005
   0.08631537  0.04315768  0.02877179       0.005
   0.10070126  0.04315768  0.02877179       0.005
   0.11508716  0.04315768  0.02877179       0.005
   0.12947305  0.04315768  0.02877179       0.005
   0.14385894  0.04315768  0.02877179       0.005
   0.15824484  0.04315768  0.02877179       0.002
   0.05754358  0.05754358  0.02877179       0.002
   0.07192947  0.05754358  0.02877179       0.005
   0.08631537  0.05754358  0.02877179       0.005
   0.10070126  0.05754358  0.02877179       0.005
   0.11508716  0.05754358  0.02877179       0.005
   0.12947305  0.05754358  0.02877179       0.005
   0.14385894  0.05754358  0.02877179       0.005
   0.15824484  0.05754358  0.02877179       0.002
   0.07192947  0.07192947  0.02877179       0.002
   0.08631537  0.07192947  0.02877179       0.005
   0.10070126  0.07192947  0.02877179       0.005
   0.11508716  0.07192947  0.02877179       0.005
   0.12947305  0.07192947  0.02877179       0.005
   0.14385894  0.07192947  0.02877179       0.005
   0.15824484  0.07192947  0.02877179       0.002
   0.08631537  0.08631537  0.02877179       0.002
   0.10070126  0.08631537  0.02877179       0.005
   0.11508716  0.08631537  0.02877179       0.005
   0.12947305  0.08631537  0.02877179       0.005
   0.14385894  0.08631537  0.02877179       0.005
   0.15824484  0.08631537  0.02877179       0.002
   0.10070126  0.10070126  0.02877179       0.002
   0.11508716  0.10070126  0.02877179       0.005
   0.12947305  0.10070126  0.02877179       0.005
   0.14385894  0.10070126  0.02877179       0.005
   0.15824484  0.10070126  0.02877179       0.002
   0.11508716  0.11508716  0.02877179       0.002
   0.12947305  0.11508716  0.02877179       0.005
   0.14385894  0.11508716  0.02877179       0.005
   0.15824484  0.11508716  0.02877179       0.002
   0.12947305  0.12947305  0.02877179       0.002
   0.14385894  0.12947305  0.02877179       0.005
   0.15824484  0.12947305  0.02877179       0.002
   0.14385894  0.14385894  0.02877179       0.002
   0.15824484  0.14385894  0.02877179       0.002
   0.15824484  0.15824484  0.02877179       0.001
   0.04315768  0.04315768  0.04315768       0.001
   0.05754358  0.04315768  0.04315768       0.002
   0.07192947  0.04315768  0.04315768       0.002
   0.08631537  0.04315768  0.04315768       0.002
   0.10070126  0.04315768  0.04315768       0.002
   0.11508716  0.04315768  0.04315768       0.002
   0.12947305  0.04315768  0.04315768       0.002
   0.14385894  0.04315768  0.04315768       0.002
   0.15824484  0.04315768  0.04315768       0.001
   0.05754358  0.05754358  0.04315768       0.002
   0.07192947  0.05754358  0.04315768       0.005
   0.08631537  0.05754358  0.04315768       0.005
   0.10070126  0.05754358  0.04315768       0.005
   0.11508716  0.05754358  0.04315768       0.005
   0.12947305  0.05754358  0.04315768       0.005
   0.14385894  0.05754358  0.04315768       0.005
   0.15824484  0.05754358  0.04315768       0.002
   0.07192947  0.07192947  0.04315768       0.002
   0.08631537  0.07192947  0.04315768       0.005
   0.10070126  0.07192947  0.04315768       0.005
   0.11508716  0.07192947  0.04315768       0.005
   0.12947305  0.07192947  0.04315768       0.005
   0.14385894  0.07192947  0.04315768       0.005
   0.15824484  0.07192947  0.04315768       0.002
   0.08631537  0.08631537  0.04315768       0.002
   0.10070126  0.08631537  0.04315768       0.005
   0.11508716  0.08631537  0.04315768       0.005
   0.12947305  0.08631537  0.04315768       0.005
   0.14385894  0.08631537  0.04315768       0.005
   0.15824484  0.08631537  0.04315768       0.002
   0.10070126  0.10070126  0.04315768       0.002
   0.11508716  0.10070126  0.04315768       0.005
   0.12947305  0.10070126  0.04315768       0.005
   0.14385894  0.10070126  0.04315768       0.005
   0.15824484  0.10070126  0.04315768       0.002
   0.11508716  0.11508716  0.04315768       0.002
   0.12947305  0.11508716  0.04315768       0.005
   0.14385894  0.11508716  0.04315768       0.005
   0.15824484  0.11508716  0.04315768       0.002
   0.12947305  0.12947305  0.04315768       0.002
   0.14385894  0.12947305  0.04315768       0.005
   0.15824484  0.12947305  0.04315768       0.002
   0.14385894  0.14385894  0.04315768       0.002
   0.15824484  0.14385894  0.04315768       0.002
   0.15824484  0.15824484  0.04315768       0.001
   0.05754358  0.05754358  0.05754358       0.001
   0.07192947  0.05754358  0.05754358       0.002
   0.08631537  0.05754358  0.05754358       0.002
   0.10070126  0.05754358  0.05754358       0.002
   0.11508716  0.05754358  0.05754358       0.002
   0.12947305  0.05754358  0.05754358       0.002
   0.14385894  0.05754358  0.05754358       0.002
   0.15824484  0.05754358  0.05754358       0.001
   0.07192947  0.07192947  0.05754358       0.002
   0.08631537  0.07192947  0.05754358       0.005
   0.10070126  0.07192947  0.05754358       0.005
   0.11508716  0.07192947  0.05754358       0.005
   0.12947305  0.07192947  0.05754358       0.005
   0.14385894  0.07192947  0.05754358       0.005
   0.15824484  0.07192947  0.05754358       0.002
   0.08631537  0.08631537  0.05754358       0.002
   0.10070126  0.08631537  0.05754358       0.005
   0.11508716  0.08631537  0.05754358       0.005
   0.12947305  0.08631537  0.05754358       0.005
   0.14385894  0.08631537  0.05754358       0.005
   0.15824484  0.08631537  0.05754358       0.002
   0.10070126  0.10070126  0.05754358       0.002
   0.11508716  0.10070126  0.05754358       0.005
   0.12947305  0.10070126  0.05754358       0.005
   0.14385894  0.10070126  0.05754358       0.005
   0.15824484  0.10070126  0.05754358       0.002
   0.11508716  0.11508716  0.05754358       0.002
   0.12947305  0.11508716  0.05754358       0.005
   0.14385894  0.11508716  0.05754358       0.005
   0.15824484  0.11508716  0.05754358       0.002
   0.12947305  0.12947305  0.05754358       0.002
   0.14385894  0.12947305  0.05754358       0.005
   0.15824484  0.12947305  0.05754358       0.002
   0.14385894  0.14385894  0.05754358       0.002
   0.15824484  0.14385894  0.05754358       0.002
   0.15824484  0.15824484  0.05754358       0.001
   0.07192947  0.07192947  0.07192947       0.001
   0.08631537  0.07192947  0.07192947       0.002
   0.10070126  0.07192947  0.07192947       0.002
   0.11508716  0.07192947  0.07192947       0.002
   0.12947305  0.07192947  0.07192947       0.002
   0.14385894  0.07192947  0.07192947       0.002
   0.15824484  0.07192947  0.07192947       0.001
   0.08631537  0.08631537  0.07192947       0.002
   0.10070126  0.08631537  0.07192947       0.005
   0.11508716  0.08631537  0.07192947       0.005
   0.12947305  0.08631537  0.07192947       0.005
   0.14385894  0.08631537  0.07192947       0.005
   0.15824484  0.08631537  0.07192947       0.002
   0.10070126  0.10070126  0.07192947       0.002
   0.11508716  0.10070126  0.07192947       0.005
   0.12947305  0.10070126  0.07192947       0.005
   0.14385894  0.10070126  0.07192947       0.005
   0.15824484  0.10070126  0.07192947       0.002
   0.11508716  0.11508716  0.07192947       0.002
   0.12947305  0.11508716  0.07192947       0.005
   0.14385894  0.11508716  0.07192947       0.005
   0.15824484  0.11508716  0.07192947       0.002
   0.12947305  0.12947305  0.07192947       0.002
   0.14385894  0.12947305  0.07192947       0.005
   0.15824484  0.12947305  0.07192947       0.002
   0.14385894  0.14385894  0.07192947       0.002
   0.15824484  0.14385894  0.07192947       0.002
   0.15824484  0.15824484  0.07192947       0.001
   0.08631537  0.08631537  0.08631537       0.001
   0.10070126  0.08631537  0.08631537       0.002
   0.11508716  0.08631537  0.08631537       0.002
   0.12947305  0.08631537  0.08631537       0.002
   0.14385894  0.08631537  0.08631537       0.002
   0.15824484  0.08631537  0.08631537       0.001
   0.10070126  0.10070126  0.08631537       0.002
   0.11508716  0.10070126  0.08631537       0.005
   0.12947305  0.10070126  0.08631537       0.005
   0.14385894  0.10070126  0.08631537       0.005
   0.15824484  0.10070126  0.08631537       0.002
   0.11508716  0.11508716  0.08631537       0.002
   0.12947305  0.11508716  0.08631537       0.005
   0.14385894  0.11508716  0.08631537       0.005
   0.15824484  0.11508716  0.08631537       0.002
   0.12947305  0.12947305  0.08631537       0.002
   0.14385894  0.12947305  0.08631537       0.005
   0.15824484  0.12947305  0.08631537       0.002
   0.14385894  0.14385894  0.08631537       0.002
   0.15824484  0.14385894  0.08631537       0.002
   0.15824484  0.15824484  0.08631537       0.001
   0.10070126  0.10070126  0.10070126       0.001
   0.11508716  0.10070126  0.10070126       0.002
   0.12947305  0.10070126  0.10070126       0.002
   0.14385894  0.10070126  0.10070126       0.002
   0.15824484  0.10070126  0.10070126       0.001
   0.11508716  0.11508716  0.10070126       0.002
   0.12947305  0.11508716  0.10070126       0.005
   0.14385894  0.11508716  0.10070126       0.005
   0.15824484  0.11508716  0.10070126       0.002
   0.12947305  0.12947305  0.10070126       0.002
   0.14385894  0.12947305  0.10070126       0.005
   0.15824484  0.12947305  0.10070126       0.002
   0.14385894  0.14385894  0.10070126       0.002
   0.15824484  0.14385894  0.10070126       0.002
   0.15824484  0.15824484  0.10070126       0.001
   0.11508716  0.11508716  0.11508716       0.001
   0.12947305  0.11508716  0.11508716       0.002
   0.14385894  0.11508716  0.11508716       0.002
   0.15824484  0.11508716  0.11508716       0.001
   0.12947305  0.12947305  0.11508716       0.002
   0.14385894  0.12947305  0.11508716       0.005
   0.15824484  0.12947305  0.11508716       0.002
   0.14385894  0.14385894  0.11508716       0.002
   0.15824484  0.14385894  0.11508716       0.002
   0.15824484  0.15824484  0.11508716       0.001
   0.12947305  0.12947305  0.12947305       0.001
   0.14385894  0.12947305  0.12947305       0.002
   0.15824484  0.12947305  0.12947305       0.001
   0.14385894  0.14385894  0.12947305       0.002
   0.15824484  0.14385894  0.12947305       0.002
   0.15824484  0.15824484  0.12947305       0.001
   0.14385894  0.14385894  0.14385894       0.001
   0.15824484  0.14385894  0.14385894       0.001
   0.15824484  0.15824484  0.14385894       0.001
   0.15824484  0.15824484  0.15824484       0.000
 
 k-points in reciprocal lattice and weights: K-Mesh                                  
   0.00000000  0.00000000  0.00000000       0.000
   0.04545455  0.00000000  0.00000000       0.001
   0.09090909  0.00000000  0.00000000       0.001
   0.13636364  0.00000000  0.00000000       0.001
   0.18181818  0.00000000  0.00000000       0.001
   0.22727273  0.00000000  0.00000000       0.001
   0.27272727  0.00000000  0.00000000       0.001
   0.31818182  0.00000000  0.00000000       0.001
   0.36363636  0.00000000  0.00000000       0.001
   0.40909091  0.00000000  0.00000000       0.001
   0.45454545  0.00000000  0.00000000       0.001
   0.50000000  0.00000000  0.00000000       0.000
   0.04545455  0.04545455  0.00000000       0.001
   0.09090909  0.04545455  0.00000000       0.002
   0.13636364  0.04545455  0.00000000       0.002
   0.18181818  0.04545455  0.00000000       0.002
   0.22727273  0.04545455  0.00000000       0.002
   0.27272727  0.04545455  0.00000000       0.002
   0.31818182  0.04545455  0.00000000       0.002
   0.36363636  0.04545455  0.00000000       0.002
   0.40909091  0.04545455  0.00000000       0.002
   0.45454545  0.04545455  0.00000000       0.002
   0.50000000  0.04545455  0.00000000       0.001
   0.09090909  0.09090909  0.00000000       0.001
   0.13636364  0.09090909  0.00000000       0.002
   0.18181818  0.09090909  0.00000000       0.002
   0.22727273  0.09090909  0.00000000       0.002
   0.27272727  0.09090909  0.00000000       0.002
   0.31818182  0.09090909  0.00000000       0.002
   0.36363636  0.09090909  0.00000000       0.002
   0.40909091  0.09090909  0.00000000       0.002
   0.45454545  0.09090909  0.00000000       0.002
   0.50000000  0.09090909  0.00000000       0.001
   0.13636364  0.13636364  0.00000000       0.001
   0.18181818  0.13636364  0.00000000       0.002
   0.22727273  0.13636364  0.00000000       0.002
   0.27272727  0.13636364  0.00000000       0.002
   0.31818182  0.13636364  0.00000000       0.002
   0.36363636  0.13636364  0.00000000       0.002
   0.40909091  0.13636364  0.00000000       0.002
   0.45454545  0.13636364  0.00000000       0.002
   0.50000000  0.13636364  0.00000000       0.001
   0.18181818  0.18181818  0.00000000       0.001
   0.22727273  0.18181818  0.00000000       0.002
   0.27272727  0.18181818  0.00000000       0.002
   0.31818182  0.18181818  0.00000000       0.002
   0.36363636  0.18181818  0.00000000       0.002
   0.40909091  0.18181818  0.00000000       0.002
   0.45454545  0.18181818  0.00000000       0.002
   0.50000000  0.18181818  0.00000000       0.001
   0.22727273  0.22727273  0.00000000       0.001
   0.27272727  0.22727273  0.00000000       0.002
   0.31818182  0.22727273  0.00000000       0.002
   0.36363636  0.22727273  0.00000000       0.002
   0.40909091  0.22727273  0.00000000       0.002
   0.45454545  0.22727273  0.00000000       0.002
   0.50000000  0.22727273  0.00000000       0.001
   0.27272727  0.27272727  0.00000000       0.001
   0.31818182  0.27272727  0.00000000       0.002
   0.36363636  0.27272727  0.00000000       0.002
   0.40909091  0.27272727  0.00000000       0.002
   0.45454545  0.27272727  0.00000000       0.002
   0.50000000  0.27272727  0.00000000       0.001
   0.31818182  0.31818182  0.00000000       0.001
   0.36363636  0.31818182  0.00000000       0.002
   0.40909091  0.31818182  0.00000000       0.002
   0.45454545  0.31818182  0.00000000       0.002
   0.50000000  0.31818182  0.00000000       0.001
   0.36363636  0.36363636  0.00000000       0.001
   0.40909091  0.36363636  0.00000000       0.002
   0.45454545  0.36363636  0.00000000       0.002
   0.50000000  0.36363636  0.00000000       0.001
   0.40909091  0.40909091  0.00000000       0.001
   0.45454545  0.40909091  0.00000000       0.002
[...]
     11      11.6199      0.00000
     12      12.3022      0.00000

 k-point   340 :       0.4545    0.4091    0.3182
  band No.  band energies     occupation 
      1     -30.3100      2.00000
      2     -13.4175      2.00000
      3     -13.2845      2.00000
      4     -12.8276      2.00000
      5      -6.4817      2.00000
      6       1.4249      2.00000
      7       1.6895      2.00000
      8       2.3983      2.00000
      9      10.6887      0.00000
     10      11.1241      0.00000
     11      11.6679      0.00000
     12      12.2432      0.00000

 k-point   341 :       0.5000    0.4091    0.3182
  band No.  band energies     occupation 
      1     -30.3047      2.00000
      2     -13.4507      2.00000
      3     -13.2751      2.00000
      4     -12.8199      2.00000
      5      -6.4812      2.00000
      6       1.3977      2.00000
      7       1.6983      2.00000
      8       2.2982      2.00000
      9      10.9351      0.00000
     10      10.9808      0.00000
     11      11.6908      0.00000
     12      12.2090      0.00000

 k-point   342 :       0.4545    0.4545    0.3182
  band No.  band energies     occupation 
      1     -30.2947      2.00000
      2     -13.3917      2.00000
      3     -13.3799      2.00000
      4     -12.8065      2.00000
      5      -6.4762      2.00000
      6       1.4495      2.00000
      7       1.5978      2.00000
      8       2.1005      2.00000
      9      10.9837      0.00000
     10      11.2938      0.00000
     11      11.7322      0.00000
     12      12.0922      0.00000

 k-point   343 :       0.5000    0.4545    0.3182
  band No.  band energies     occupation 
      1     -30.2894      2.00000
      2     -13.4199      2.00000
      3     -13.3752      2.00000
      4     -12.7992      2.00000
      5      -6.4746      2.00000
      6       1.4654      2.00000
      7       1.5920      2.00000
      8       1.9670      2.00000
      9      11.1452      0.00000
     10      11.3141      0.00000
     11      11.7667      0.00000
     12      11.9860      0.00000

 k-point   344 :       0.5000    0.5000    0.3182
  band No.  band energies     occupation 
      1     -30.2842      2.00000
      2     -13.4093      2.00000
      3     -13.4093      2.00000
      4     -12.7920      2.00000
      5      -6.4726      2.00000
      6       1.5557      2.00000
      7       1.5557      2.00000
      8       1.7880      2.00000
      9      11.2168      0.00000
     10      11.5898      0.00000
     11      11.7608      0.00000
     12      11.7608      0.00000

 k-point   345 :       0.3636    0.3636    0.3636
  band No.  band energies     occupation 
      1     -30.3430      2.00000
      2     -13.2150      2.00000
      3     -13.1077      2.00000
      4     -13.1077      2.00000
      5      -6.4637      2.00000
      6       1.6351      2.00000
      7       1.6351      2.00000
      8       2.8972      2.00000
      9      10.1355      0.00000
     10      11.4998      0.00000
     11      11.4998      0.00000
     12      12.5752      0.00000

 k-point   346 :       0.4091    0.3636    0.3636
  band No.  band energies     occupation 
      1     -30.3190      2.00000
      2     -13.3141      2.00000
      3     -13.1259      2.00000
      4     -13.0717      2.00000
      5      -6.4479      2.00000
      6       1.4174      2.00000
      7       1.5858      2.00000
      8       2.5783      2.00000
      9      10.4754      0.00000
     10      11.6699      0.00000
     11      11.7157      0.00000
     12      12.5364      0.00000

 k-point   347 :       0.4545    0.3636    0.3636
  band No.  band energies     occupation 
      1     -30.3036      2.00000
      2     -13.4099      2.00000
      3     -13.1022      2.00000
      4     -13.0486      2.00000
      5      -6.4389      2.00000
      6       1.2830      2.00000
      7       1.5917      2.00000
      8       2.3433      2.00000
      9      10.7914      0.00000
     10      11.5388      0.00000
     11      11.8826      0.00000
     12      12.4783      0.00000

 k-point   348 :       0.5000    0.3636    0.3636
  band No.  band energies     occupation 
      1     -30.2983      2.00000
      2     -13.4434      2.00000
      3     -13.0930      2.00000
      4     -13.0407      2.00000
      5      -6.4360      2.00000
      6       1.2376      2.00000
      7       1.6065      2.00000
      8       2.2507      2.00000
      9      10.9703      0.00000
     10      11.4092      0.00000
     11      11.9523      0.00000
     12      12.4453      0.00000

 k-point   349 :       0.4091    0.4091    0.3636
  band No.  band energies     occupation 
      1     -30.2950      2.00000
      2     -13.2866      2.00000
      3     -13.2465      2.00000
      4     -13.0600      2.00000
      5      -6.4170      2.00000
      6       1.2987      2.00000
      7       1.4203      2.00000
      8       2.2294      2.00000
      9      10.8508      0.00000
     10      11.9454      0.00000
     11      11.9657      0.00000
     12      12.6792      0.00000

 k-point   350 :       0.4545    0.4091    0.3636
  band No.  band energies     occupation 
      1     -30.2797      2.00000
      2     -13.3665      2.00000
      3     -13.2381      2.00000
      4     -13.0376      2.00000
      5      -6.3980      2.00000
      6       1.1940      2.00000
      7       1.3938      2.00000
      8       1.9690      2.00000
      9      11.1858      0.00000
     10      11.8564      0.00000
     11      12.2138      0.00000
     12      12.6023      0.00000

 k-point   351 :       0.5000    0.4091    0.3636
  band No.  band energies     occupation 
      1     -30.2745      2.00000
      2     -13.3996      2.00000
      3     -13.2293      2.00000
      4     -13.0297      2.00000
      5      -6.3915      2.00000
      6       1.1537      2.00000
      7       1.4092      2.00000
      8       1.8616      2.00000
      9      11.3777      0.00000
     10      11.7320      0.00000
     11      12.4242      0.00000
     12      12.4427      0.00000

 k-point   352 :       0.4545    0.4545    0.3636
  band No.  band energies     occupation 
      1     -30.2645      2.00000
      2     -13.3428      2.00000
      3     -13.3325      2.00000
      4     -13.0161      2.00000
      5      -6.3722      2.00000
      6       1.1773      2.00000
      7       1.2887      2.00000
      8       1.6827      2.00000
      9      11.5315      0.00000
     10      12.0653      0.00000
     11      12.1911      0.00000
     12      12.5974      0.00000

 k-point   353 :       0.5000    0.4545    0.3636
  band No.  band energies     occupation 
      1     -30.2593      2.00000
      2     -13.3714      2.00000
      3     -13.3280      2.00000
      4     -13.0084      2.00000
      5      -6.3635      2.00000
      6       1.1719      2.00000
      7       1.2862      2.00000
      8       1.5528      2.00000
      9      11.7413      0.00000
     10      11.9785      0.00000
     11      12.2890      0.00000
     12      12.5260      0.00000

 k-point   354 :       0.5000    0.5000    0.3636
  band No.  band energies     occupation 
      1     -30.2540      2.00000
      2     -13.3617      2.00000
      3     -13.3617      2.00000
      4     -13.0009      2.00000
      5      -6.3539      2.00000
      6       1.2444      2.00000
      7       1.2444      2.00000
      8       1.3823      2.00000
      9      12.0104      0.00000
     10      12.0952      0.00000
     11      12.0952      0.00000
     12      12.4933      0.00000

 k-point   355 :       0.4091    0.4091    0.4091
  band No.  band energies     occupation 
      1     -30.2712      2.00000
      2     -13.2557      2.00000
      3     -13.2096      2.00000
      4     -13.2096      2.00000
      5      -6.3645      2.00000
      6       1.1949      2.00000
      7       1.1949      2.00000
      8       1.8755      2.00000
      9      11.2483      0.00000
     10      12.2266      0.00000
     11      12.2266      0.00000
     12      13.5033      0.00000

 k-point   356 :       0.4545    0.4091    0.4091
  band No.  band energies     occupation 
      1     -30.2560      2.00000
      2     -13.3262      2.00000
      3     -13.2123      2.00000
      4     -13.1859      2.00000
      5      -6.3308      2.00000
      6       1.0559      2.00000
      7       1.1754      2.00000
      8       1.6122      2.00000
      9      11.5844      0.00000
     10      12.1740      0.00000
     11      12.4352      0.00000
     12      13.4167      0.00000

 k-point   357 :       0.5000    0.4091    0.4091
  band No.  band energies     occupation 
      1     -30.2508      2.00000
      2     -13.3591      2.00000
      3     -13.2041      2.00000
      4     -13.1778      2.00000
      5      -6.3193      2.00000
      6       1.0090      2.00000
      7       1.1925      2.00000
      8       1.4995      2.00000
      9      11.7681      0.00000
     10      12.0773      0.00000
     11      12.5177      0.00000
     12      13.3753      0.00000

 k-point   358 :       0.4545    0.4545    0.4091
  band No.  band energies     occupation 
      1     -30.2408      2.00000
      2     -13.3042      2.00000
      3     -13.2951      2.00000
      4     -13.1749      2.00000
      5      -6.2874      2.00000
      6       0.9973      2.00000
      7       1.0588      2.00000
      8       1.3471      2.00000
      9      11.9111      0.00000
     10      12.3303      0.00000
     11      12.4523      0.00000
     12      13.7314      0.00000

 k-point   359 :       0.5000    0.4545    0.4091
  band No.  band energies     occupation 
      1     -30.2356      2.00000
      2     -13.3330      2.00000
      3     -13.2907      2.00000
      4     -13.1671      2.00000
      5      -6.2723      2.00000
      6       0.9697      2.00000
      7       1.0584      2.00000
      8       1.2262      2.00000
      9      12.0938      0.00000
     10      12.2829      0.00000
     11      12.4871      0.00000
     12      13.7507      0.00000

 k-point   360 :       0.5000    0.5000    0.4091
  band No.  band energies     occupation 
      1     -30.2304      2.00000
      2     -13.3241      2.00000
      3     -13.3241      2.00000
      4     -13.1594      2.00000
      5      -6.2560      2.00000
      6       1.0131      2.00000
      7       1.0131      2.00000
      8       1.0772      2.00000
      9      12.3235      0.00000
     10      12.3562      0.00000
     11      12.3562      0.00000
     12      13.7946      0.00000

 k-point   361 :       0.4545    0.4545    0.4545
  band No.  band energies     occupation 
      1     -30.2257      2.00000
      2     -13.2822      2.00000
      3     -13.2711      2.00000
      4     -13.2711      2.00000
      5      -6.2316      2.00000
      6       0.9172      2.00000
      7       0.9172      2.00000
      8       1.1080      2.00000
      9      12.2022      0.00000
     10      12.5044      0.00000
     11      12.5044      0.00000
     12      14.8047      0.00000

 k-point   362 :       0.5000    0.4545    0.4545
  band No.  band energies     occupation 
      1     -30.2205      2.00000
      2     -13.3084      2.00000
      3     -13.2699      2.00000
      4     -13.2628      2.00000
      5      -6.2121      2.00000
      6       0.8694      2.00000
      7       0.9180      2.00000
      8       0.9992      2.00000
      9      12.3585      0.00000
     10      12.4622      0.00000
     11      12.5656      0.00000
     12      14.7933      0.00000

 k-point   363 :       0.5000    0.5000    0.4545
  band No.  band energies     occupation 
      1     -30.2153      2.00000
      2     -13.2999      2.00000
      3     -13.2999      2.00000
      4     -13.2581      2.00000
      5      -6.1910      2.00000
      6       0.8706      2.00000
      7       0.8706      2.00000
      8       0.8872      2.00000
      9      12.5168      0.00000
     10      12.5241      0.00000
     11      12.5241      0.00000
     12      15.0151      0.00000

 k-point   364 :       0.5000    0.5000    0.5000
  band No.  band energies     occupation 
      1     -30.2102      2.00000
      2     -13.2916      2.00000
      3     -13.2916      2.00000
      4     -13.2916      2.00000
      5      -6.1681      2.00000
      6       0.8225      2.00000
      7       0.8225      2.00000
      8       0.8225      2.00000
      9      12.5823      0.00000
     10      12.5823      0.00000
     11      12.5823      0.00000
     12      15.6974      0.00000


--------------------------------------------------------------------------------------------------------


 soft charge-density along one line, spin component           1
         0         1         2         3         4         5         6         7         8         9
 total charge-density along one line
 
 pseudopotential strength for first ion, spin component:           1
 12.488  14.970   0.000  -0.000   0.000   0.000  -0.000   0.000
 14.970  17.945   0.000  -0.000   0.000   0.000  -0.000   0.000
  0.000   0.000  -5.933  -0.000  -0.000  -7.927  -0.000  -0.000
 -0.000  -0.000  -0.000  -5.933  -0.000  -0.000  -7.927  -0.000
  0.000   0.000  -0.000  -0.000  -5.933  -0.000  -0.000  -7.927
  0.000   0.000  -7.927  -0.000  -0.000  -9.883  -0.000  -0.000
 -0.000  -0.000  -0.000  -7.927  -0.000  -0.000  -9.883  -0.000
  0.000   0.000  -0.000  -0.000  -7.927  -0.000  -0.000  -9.883
 total augmentation occupancy for first ion, spin component:           1
  4.259  -1.351   0.000   0.000   0.000   0.000   0.000   0.000
 -1.351   0.504   0.000   0.000   0.000   0.000   0.000   0.000
  0.000   0.000   1.929   0.000   0.000  -0.292   0.000   0.000
  0.000   0.000   0.000   1.929  -0.000   0.000  -0.292   0.000
  0.000   0.000   0.000   0.000   1.929   0.000   0.000  -0.292
  0.000   0.000  -0.292   0.000   0.000   0.048   0.000   0.000
  0.000   0.000   0.000  -0.292   0.000   0.000   0.048   0.000
  0.000   0.000   0.000   0.000  -0.292   0.000   0.000   0.048


------------------------ aborting loop because EDIFF is reached ----------------------------------------


 


 total charge     
 
# of ion     s       p       d       tot
----------------------------------------
  1        1.250   2.323   0.000   3.573
  2        2.083   5.803   0.897   8.782
------------------------------------------------
tot        3.333   8.125   0.897  12.355
 
    CHARGE:  cpu time    0.0690: real time    0.0695
    FORLOC:  cpu time    0.0000: real time    0.0004
    FORNL :  cpu time    0.1640: real time    0.1643
    STRESS:  cpu time    0.9359: real time    0.9400
    FORCOR:  cpu time    0.0040: real time    0.0043
    FORHAR:  cpu time    0.0020: real time    0.0014
    MIXING:  cpu time    0.0000: real time    0.0005
    OFIELD:  cpu time    0.0000: real time    0.0006

  FORCE on cell =-STRESS in cart. coord.  units (eV):
  Direction    XX          YY          ZZ          XY          YZ          ZX
  --------------------------------------------------------------------------------------
  Alpha Z   136.28851   136.28851   136.28851
  Ewald    -381.64928  -381.64928  -381.64928    -0.00000     0.00000     0.00000
  Hartree    40.38397    40.38397    40.38397    -0.00000    -0.00000    -0.00000
  E(xc)     -61.86789   -61.86789   -61.86789     0.00000    -0.00000    -0.00000
  Local      73.58863    73.58863    73.58863    -0.00000     0.00000     0.00000
  n-local   -43.31954   -47.42855   -49.77138    -1.45913     1.68685    -0.14049
  augment     2.76131     2.76131     2.76131    -0.00000     0.00000     0.00000
  Kinetic   222.35899   236.46345   253.15538    -1.67500     2.40838     0.79222
  Fock        0.00000     0.00000     0.00000     0.00000     0.00000     0.00000
  -------------------------------------------------------------------------------------
  Total      -0.00863    -0.00863    -0.00863    -0.00000    -0.00000     0.00000
  in kB      -0.43838    -0.43838    -0.43838    -0.00000    -0.00000     0.00000
  external pressure =       -0.44 kB  Pullay stress =        0.00 kB


 VOLUME and BASIS-vectors are now :
 -----------------------------------------------------------------------------
  energy-cutoff  :      520.00
  volume of cell :       31.54
      direct lattice vectors                 reciprocal lattice vectors
     3.159660714  0.000000000  0.000000000     0.316489677  0.000000000  0.000000000
     0.000000000  3.159660714  0.000000000     0.000000000  0.316489677  0.000000000
     0.000000000  0.000000000  3.159660714     0.000000000  0.000000000  0.316489677

  length of vectors
     3.159660714  3.159660714  3.159660714     0.316489677  0.316489677  0.316489677


 FORCES acting on ions
    electron-ion (+dipol)            ewald-force                    non-local-force                 convergence-correction
 -----------------------------------------------------------------------------------------------
   0.483E-13 0.202E-12 -.617E-12   0.405E-14 0.533E-15 0.160E-14   0.000E+00 0.000E+00 0.000E+00   -.511E-14 0.302E-14 -.389E-14
   -.761E-15 -.387E-15 -.651E-15   -.220E-14 -.155E-14 -.175E-14   0.000E+00 0.000E+00 0.000E+00   0.130E-13 -.690E-15 -.169E-13
 -----------------------------------------------------------------------------------------------
   0.476E-13 0.202E-12 -.618E-12   0.186E-14 -.102E-14 -.145E-15   0.000E+00 0.000E+00 0.000E+00   0.792E-14 0.233E-14 -.208E-13
 
 
 POSITION                                       TOTAL-FORCE (eV/Angst)
 -----------------------------------------------------------------------------------
      1.57983      1.57983      1.57983         0.000000      0.000000      0.000000
      0.00000      0.00000      0.00000         0.000000      0.000000      0.000000
 -----------------------------------------------------------------------------------
    total drift:                                0.000000      0.000000     -0.000000


--------------------------------------------------------------------------------------------------------



  FREE ENERGIE OF THE ION-ELECTRON SYSTEM (eV)
  ---------------------------------------------------
  free  energy   TOTEN  =       -14.12684522 eV

  energy  without entropy=      -14.12602827  energy(sigma->0) =      -14.12643675
 


--------------------------------------------------------------------------------------------------------


    POTLOK:  cpu time    0.0250: real time    0.0255


--------------------------------------------------------------------------------------------------------


     LOOP+:  cpu time   21.0618: real time   21.2802
    4ORBIT:  cpu time    0.0000: real time    0.0000
 


 total charge     
 
# of ion     s       p       d       tot
----------------------------------------
  1        1.250   2.323   0.000   3.573
  2        2.083   5.803   0.897   8.782
------------------------------------------------
tot        3.333   8.125   0.897  12.355
 

 total amount of memory used by VASP on root node    57285. kBytes
========================================================================

   base      :      30000. kBytes
   nonl-proj :      23279. kBytes
   fftplans  :        790. kBytes
   grid      :        406. kBytes
   one-center:         15. kBytes
   wavefun   :       2795. kBytes
 
  
  
 General timing and accounting informations for this job:
 ========================================================
  
                  Total CPU time used (sec):       26.543
                            User time (sec):       22.843
                          System time (sec):        3.700
                         Elapsed time (sec):       26.844
  
                   Maximum memory used (kb):      133420.
                   Average memory used (kb):           0.
  
                          Minor page faults:       154434
                          Major page faults:            1
                 Voluntary context switches:         2617
