 vasp.5.4.4.18Apr17-6-g9f103f2a35 (build Jan 10 2024 09:48:00) complex          
  
 executed on             LinuxIFC date 2024.04.18  14:27:31
 running on   64 total cores
 distrk:  each k-point on   64 cores,    1 groups
 distr:  one band on NCORES_PER_BAND=   8 cores,    8 groups


--------------------------------------------------------------------------------------------------------


 INCAR:
 POTCAR:    PAW_PBE Co 02Aug2007                  
 POTCAR:    PAW_PBE La 06Sep2000                  
 POTCAR:    PAW_PBE Si 05Jan2001                  

 ----------------------------------------------------------------------------- 
|                                                                             |
|           W    W    AA    RRRRR   N    N  II  N    N   GGGG   !!!           |
|           W    W   A  A   R    R  NN   N  II  NN   N  G    G  !!!           |
|           W    W  A    A  R    R  N N  N  II  N N  N  G       !!!           |
|           W WW W  AAAAAA  RRRRR   N  N N  II  N  N N  G  GGG   !            |
|           WW  WW  A    A  R   R   N   NN  II  N   NN  G    G                |
|           W    W  A    A  R    R  N    N  II  N    N   GGGG   !!!           |
|                                                                             |
|      You have selected ISYM=2 for HF type calculation. This will symmetrize |
|      the charge density but not the exchange potential.                     |
|      I suggest to use ISYM=3 instead. This uses symmetry to obtain          |
|      the orbitals at all k-points in the Brillouine zone, but does not      |
|      apply symmetry to the Hartree potential directly.                      |
|      The resultant charge might have lower symmetry than the crystal,       |
|      but at least, Hartree and exchange are fully compatible.               |
|                                                                             |
 ----------------------------------------------------------------------------- 

 POTCAR:    PAW_PBE Co 02Aug2007                  
   VRHFIN =Co: d8 s1                                                            
   LEXCH  = PE                                                                  
   EATOM  =   813.3670 eV,   59.7808 Ry                                         
                                                                                
   TITEL  = PAW_PBE Co 02Aug2007                                                
   LULTRA =        F    use ultrasoft PP ?                                      
   IUNSCR =        1    unscreen: 0-lin 1-nonlin 2-no                           
   RPACOR =    2.000    partial core radius                                     
   POMASS =   58.933; ZVAL   =    9.000    mass and valenz                      
   RCORE  =    2.300    outmost cutoff radius                                   
   RWIGS  =    2.460; RWIGS  =    1.302    wigner-seitz radius (au A)           
   ENMAX  =  267.968; ENMIN  =  200.976 eV                                      
   RCLOC  =    1.203    cutoff for local pot                                    
   LCOR   =        T    correct aug charges                                     
   LPAW   =        T    paw PP                                                  
   EAUG   =  477.818                                                            
   DEXC   =    0.000                                                            
   RMAX   =    2.360    core radius for proj-oper                               
   RAUG   =    1.300    factor for augmentation sphere                          
   RDEP   =    2.393    radius for radial grids                                 
   RDEPT  =    1.864    core radius for aug-charge                              
                                                                                
   Atomic configuration                                                         
    9 entries                                                                   
     n  l   j            E        occ.                                          
     1  0  0.50     -7587.6674   2.0000                                         
     2  0  0.50      -893.6084   2.0000                                         
     2  1  1.50      -764.5805   6.0000                                         
     3  0  0.50       -97.5973   2.0000                                         
     3  1  1.50       -60.9648   6.0000                                         
     3  2  2.50        -4.2382   8.0000                                         
     4  0  0.50        -4.3746   1.0000                                         
     4  1  1.50        -4.0817   0.0000                                         
     4  3  2.50        -1.3606   0.0000                                         
   Description                                                                  
     l       E           TYP  RCUT    TYP  RCUT                                 
     2     -4.2382362     23  2.300                                             
     2     -5.5988188     23  2.300                                             
     0     -4.3745797     23  2.300                                             
     0      5.7660125     23  2.300                                             
     1     -2.7211652     23  2.300                                             
     1     16.9860234     23  2.300                                             
  local pseudopotential read in
  partial core-charges read in
  partial kinetic energy density read in
  atomic valenz-charges read in
  non local Contribution for L=           2  read in
    real space projection operators read in
  non local Contribution for L=           2  read in
    real space projection operators read in
  non local Contribution for L=           0  read in
    real space projection operators read in
  non local Contribution for L=           0  read in
    real space projection operators read in
  non local Contribution for L=           1  read in
    real space projection operators read in
  non local Contribution for L=           1  read in
    real space projection operators read in
    PAW grid and wavefunctions read in
 
   number of l-projection  operators is LMAX  =           6
   number of lm-projection operators is LMMAX =          18
 
 POTCAR:    PAW_PBE La 06Sep2000                  
   VRHFIN =La : [core=Kr4d]                                                     
   LEXCH  = PE                                                                  
   EATOM  =   865.9763 eV,   63.6475 Ry                                         
                                                                                
   TITEL  = PAW_PBE La 06Sep2000                                                
   LULTRA =        F    use ultrasoft PP ?                                      
   IUNSCR =        1    unscreen: 0-lin 1-nonlin 2-no                           
   RPACOR =    2.300    partial core radius                                     
   POMASS =  138.900; ZVAL   =   11.000    mass and valenz                      
   RCORE  =    2.800    outmost cutoff radius                                   
   RWIGS  =    2.900; RWIGS  =    1.535    wigner-seitz radius (au A)           
   ENMAX  =  219.292; ENMIN  =  164.469 eV                                      
   RCLOC  =    1.601    cutoff for local pot                                    
   LCOR   =        T    correct aug charges                                     
   LPAW   =        T    paw PP                                                  
   EAUG   =  583.575                                                            
   DEXC   =    0.000                                                            
   RMAX   =    2.853    core radius for proj-oper                               
   RAUG   =    1.300    factor for augmentation sphere                          
   RDEP   =    2.802    radius for radial grids                                 
   RDEPT  =    2.156    core radius for aug-charge                              
                                                                                
   Atomic configuration                                                         
   14 entries                                                                   
     n  l   j            E        occ.                                          
     1  0  0.50    -38741.0879   2.0000                                         
     2  0  0.50     -6166.6801   2.0000                                         
     2  1  1.50     -5526.1593   6.0000                                         
     3  0  0.50     -1319.0200   2.0000                                         
     3  1  1.50     -1114.5963   6.0000                                         
     3  2  2.50      -821.1793  10.0000                                         
     4  0  0.50      -266.3851   2.0000                                         
     4  1  1.50      -199.9276   6.0000                                         
     4  2  2.50      -103.8239  10.0000                                         
     5  0  0.50       -38.9172   2.0000                                         
     6  0  0.50        -3.6792   2.0000                                         
     5  1  1.50       -22.3948   6.0000                                         
     5  2  2.50        -3.0911   0.9999                                         
     4  3  2.50        -4.3603   0.0001                                         
   Description                                                                  
     l       E           TYP  RCUT    TYP  RCUT                                 
     0    -38.9171645     23  2.800                                             
     0     -3.6792381     23  2.800                                             
     1    -22.3948300     23  2.500                                             
     1     27.2116520     23  2.500                                             
     2     -3.0910934     23  2.500                                             
     2      1.0119135     23  2.500                                             
     3     -4.3602911     23  2.800                                             
     3     -5.7208737     23  2.800                                             
  local pseudopotential read in
  partial core-charges read in
  partial kinetic energy density read in
  atomic valenz-charges read in
  non local Contribution for L=           0  read in
    real space projection operators read in
  non local Contribution for L=           0  read in
    real space projection operators read in
  non local Contribution for L=           1  read in
    real space projection operators read in
  non local Contribution for L=           1  read in
    real space projection operators read in
  non local Contribution for L=           2  read in
    real space projection operators read in
  non local Contribution for L=           2  read in
    real space projection operators read in
  non local Contribution for L=           3  read in
    real space projection operators read in
  non local Contribution for L=           3  read in
    real space projection operators read in
    PAW grid and wavefunctions read in
 
   number of l-projection  operators is LMAX  =           8
   number of lm-projection operators is LMMAX =          32
 
 POTCAR:    PAW_PBE Si 05Jan2001                  
   VRHFIN =Si: s2p2                                                             
   LEXCH  = PE                                                                  
   EATOM  =   103.0669 eV,    7.5752 Ry                                         
                                                                                
   TITEL  = PAW_PBE Si 05Jan2001                                                
   LULTRA =        F    use ultrasoft PP ?                                      
   IUNSCR =        1    unscreen: 0-lin 1-nonlin 2-no                           
   RPACOR =    1.500    partial core radius                                     
   POMASS =   28.085; ZVAL   =    4.000    mass and valenz                      
   RCORE  =    1.900    outmost cutoff radius                                   
   RWIGS  =    2.480; RWIGS  =    1.312    wigner-seitz radius (au A)           
   ENMAX  =  245.345; ENMIN  =  184.009 eV                                      
   ICORE  =        2    local potential                                         
   LCOR   =        T    correct aug charges                                     
   LPAW   =        T    paw PP                                                  
   EAUG   =  322.069                                                            
   DEXC   =    0.000                                                            
   RMAX   =    1.950    core radius for proj-oper                               
   RAUG   =    1.300    factor for augmentation sphere                          
   RDEP   =    1.993    radius for radial grids                                 
   RDEPT  =    1.837    core radius for aug-charge                              
                                                                                
   Atomic configuration                                                         
    6 entries                                                                   
     n  l   j            E        occ.                                          
     1  0  0.50     -1785.8828   2.0000                                         
     2  0  0.50      -139.4969   2.0000                                         
     2  1  1.50       -95.5546   6.0000                                         
     3  0  0.50       -10.8127   2.0000                                         
     3  1  0.50        -4.0811   2.0000                                         
     3  2  1.50        -4.0817   0.0000                                         
   Description                                                                  
     l       E           TYP  RCUT    TYP  RCUT                                 
     0    -10.8127223     23  1.900                                             
     0     -7.6451159     23  1.900                                             
     1     -4.0811372     23  1.900                                             
     1      2.4879257     23  1.900                                             
     2     -4.0817478      7  1.900                                             
  local pseudopotential read in
  partial core-charges read in
  partial kinetic energy density read in
  atomic valenz-charges read in
  non local Contribution for L=           0  read in
    real space projection operators read in
  non local Contribution for L=           0  read in
    real space projection operators read in
  non local Contribution for L=           1  read in
    real space projection operators read in
  non local Contribution for L=           1  read in
    real space projection operators read in
    PAW grid and wavefunctions read in
 
   number of l-projection  operators is LMAX  =           4
   number of lm-projection operators is LMMAX =           8
 

 ----------------------------------------------------------------------------- 
|                                                                             |
|  ADVICE TO THIS USER RUNNING 'VASP/VAMP'   (HEAR YOUR MASTER'S VOICE ...):  |
|                                                                             |
|      You have a (more or less) 'small supercell' and for smaller cells      |
|      it is recommended  to use the reciprocal-space projection scheme!      |
|      The real space optimization is not  efficient for small cells and it   |
|      is also less accurate ...                                              |
|      Therefore set LREAL=.FALSE. in the  INCAR file                         |
|                                                                             |
 ----------------------------------------------------------------------------- 

 Optimization of the real space projectors (new method)

 maximal supplied QI-value         = 16.25
 optimisation between [QCUT,QGAM] = [ 11.54, 23.24] = [ 37.28,151.24] Ry 
 Optimized for a Real-space Cutoff    1.45 Angstroem

   l    n(q)    QCUT    max X(q) W(low)/X(q) W(high)/X(q)  e(spline) 
   2      9    11.539    65.824    0.19E-03    0.47E-04    0.16E-06
   2      9    11.539    61.429    0.20E-03    0.48E-04    0.16E-06
   0     10    11.539    56.174    0.76E-04    0.45E-04    0.23E-06
   0     10    11.539    31.263    0.69E-04    0.41E-04    0.21E-06
   1     10    11.539    19.828    0.78E-04    0.14E-03    0.70E-07
   1     10    11.539    15.139    0.65E-04    0.12E-03    0.64E-07
 Optimization of the real space projectors (new method)

 maximal supplied QI-value         = 13.42
 optimisation between [QCUT,QGAM] = [ 11.67, 23.35] = [ 38.16,152.62] Ry 
 Optimized for a Real-space Cutoff    1.63 Angstroem

   l    n(q)    QCUT    max X(q) W(low)/X(q) W(high)/X(q)  e(spline) 
   0     11    11.673    13.882    0.27E-04    0.79E-05    0.11E-06
   0     11    11.673    12.184    0.39E-04    0.13E-04    0.19E-06
   1     11    11.673     4.523    0.73E-05    0.76E-05    0.12E-06
   1     11    11.673     4.424    0.87E-05    0.13E-04    0.19E-06
   2     10    11.673    52.481    0.65E-04    0.36E-04    0.18E-06
   2     10    11.673    38.501    0.61E-04    0.33E-04    0.17E-06
   3     10    11.673    65.631    0.17E-03    0.14E-03    0.37E-06
   3     10    11.673    56.854    0.17E-03    0.14E-03    0.37E-06
 Optimization of the real space projectors (new method)

 maximal supplied QI-value         = 19.84
 optimisation between [QCUT,QGAM] = [ 11.51, 23.22] = [ 37.09,150.92] Ry 
 Optimized for a Real-space Cutoff    1.21 Angstroem

   l    n(q)    QCUT    max X(q) W(low)/X(q) W(high)/X(q)  e(spline) 
   0      8    11.508   159.560    0.71E-04    0.15E-03    0.51E-07
   0      8    11.508   115.863    0.70E-04    0.15E-03    0.51E-07
   1      8    11.508    88.339    0.16E-03    0.38E-04    0.82E-07
   1      8    11.508    48.592    0.15E-03    0.36E-04    0.79E-07
  PAW_PBE Co 02Aug2007                  :
 energy of atom  1       EATOM= -813.3670
 kinetic energy error for atom=    0.0028 (will be added to EATOM!!)
  PAW_PBE La 06Sep2000                  :
 energy of atom  2       EATOM= -865.9763
 kinetic energy error for atom=    0.0009 (will be added to EATOM!!)
  PAW_PBE Si 05Jan2001                  :
 energy of atom  3       EATOM= -103.0669
 kinetic energy error for atom=    0.0005 (will be added to EATOM!!)
 
 
 POSCAR: 624028                                  
  positions in direct lattice
  velocities in cartesian coordinates
 exchange correlation table for  LEXCH =        8
   RHO(1)=    0.500       N(1)  =     2000
   RHO(2)=  100.500       N(2)  =     4000
 


--------------------------------------------------------------------------------------------------------


 ion  position               nearest neighbor table
   1  0.664  0.664  0.327-   4 2.28   3 2.28   3 2.28   4 2.28   5 2.28   2 3.30   2 3.32   2 3.32
                             2 3.32   2 3.32
   2  0.006  0.006  0.011-   5 3.05   5 3.05   5 3.05   5 3.05   3 3.16   4 3.16   3 3.16   4 3.16
                             3 3.22   4 3.22   3 3.22   4 3.22   1 3.30   1 3.32   1 3.32   1 3.32
   3  0.759  0.259  0.519-   1 2.28   1 2.28   5 2.63   5 2.64   4 2.95   4 2.95   4 2.95   4 2.95
                             2 3.16   2 3.16   2 3.22   2 3.22
   4  0.259  0.759  0.519-   1 2.28   1 2.28   5 2.63   5 2.64   3 2.95   3 2.95   3 2.95   3 2.95
                             2 3.16   2 3.16   2 3.22   2 3.22
   5  0.428  0.428  0.854-   1 2.28   3 2.63   4 2.63   4 2.64   3 2.64   2 3.05   2 3.05   2 3.05
                             2 3.05
 
  Warning from LATTYP: Got some problem with cell dimensions!
  Tried to take original basis but could not verify dimensions!
  LATTYP: Found a base centered monoclinic cell.
 ALAT       =     5.9049132765
 B/A-ratio  =     0.9999485163
 C/A-ratio  =     1.7082589572
 COS(beta)  =    -0.6210992088
  
  Lattice vectors:
  
 A1 = (  -0.0001074093,  -4.1752966643,   0.0007819025)
 A2 = (  -4.1752966643,  -0.0001074093,   0.0007819025)
 A3 = (   6.2640384030,   6.2640384030,  -4.8242777450)


Analysis of symmetry for initial positions (statically):
=====================================================================
 Subroutine PRICEL returns:
 Original cell was already a primitive cell.
 

 Routine SETGRP: Setting up the symmetry group for a 
 base centered monoclinic supercell.


 Subroutine GETGRP returns: Found  2 space group operations
 (whereof  2 operations were pure point group operations)
 out of a pool of  4 trial point group operations.


The static configuration has the point symmetry C_1h.


Analysis of symmetry for dynamics (positions and initial velocities):
=====================================================================
 Subroutine PRICEL returns:
 Original cell was already a primitive cell.
 

 Routine SETGRP: Setting up the symmetry group for a 
 base centered monoclinic supercell.


 Subroutine GETGRP returns: Found  2 space group operations
 (whereof  2 operations were pure point group operations)
 out of a pool of  4 trial point group operations.


The dynamic configuration has the point symmetry C_1h.


Analysis of structural, dynamic, and magnetic symmetry:
=====================================================================
 Subroutine PRICEL returns:
 Original cell was already a primitive cell.
 

 Routine SETGRP: Setting up the symmetry group for a 
 base centered monoclinic supercell.


 Subroutine GETGRP returns: Found  2 space group operations
 (whereof  2 operations were pure point group operations)
 out of a pool of  4 trial point group operations.


The magnetic configuration has the point symmetry C_1h.


 Subroutine INISYM returns: Found  2 space group operations
 (whereof  2 operations are pure point group operations),
 and found     1 'primitive' translations

 
 
 KPOINTS: 0.040   7   7   5   72  0.040  158    7 
  k-points in reciprocal lattice
Space group operators:
 irot       det(A)        alpha          n_x          n_y          n_z        tau_x        tau_y        tau_z
    1     1.000000     0.000000     1.000000     0.000000     0.000000     0.000000     0.000000     0.000000
    2    -1.000000   180.000000     0.707107    -0.707107     0.000000     0.000000     0.000000     0.000000

 ----------------------------------------------------------------------------- 
|                                                                             |
|           W    W    AA    RRRRR   N    N  II  N    N   GGGG   !!!           |
|           W    W   A  A   R    R  NN   N  II  NN   N  G    G  !!!           |
|           W    W  A    A  R    R  N N  N  II  N N  N  G       !!!           |
|           W WW W  AAAAAA  RRRRR   N  N N  II  N  N N  G  GGG   !            |
|           WW  WW  A    A  R   R   N   NN  II  N   NN  G    G                |
|           W    W  A    A  R    R  N    N  II  N    N   GGGG   !!!           |
|                                                                             |
|      Your generating k-point grid is not commensurate to the symmetry       |
|      of the lattice.  This can cause   slow convergence with respect        |
|      to k-points for HF type calculations                                   |
|      suggested SOLUTIONS:                                                   |
|       ) if not already the case, use automatic k-point generation           |
|       ) shift your grid to Gamma (G) (e.g. required for hex or fcc lattice) |
|                                                                             |
 ----------------------------------------------------------------------------- 

 
 Subroutine IBZKPT_HF returns following result:
 ==============================================
 
 Found    403 k-points in 1st BZ
 the following    403 k-points will be used (e.g. in the exchange kernel)
 Following reciprocal coordinates:   # in IRBZ
  0.000000  0.000000  0.000000    0.00408163   1 t-inv F
  0.142857  0.000000  0.000000    0.00408163   2 t-inv F
  0.285714  0.000000  0.000000    0.00408163   3 t-inv F
  0.428571  0.000000  0.000000    0.00408163   4 t-inv F
  0.142857  0.142857  0.000000    0.00408163   5 t-inv F
  0.285714  0.142857  0.000000    0.00408163   6 t-inv F
  0.428571  0.142857  0.000000    0.00408163   7 t-inv F
 -0.428571  0.142857  0.000000    0.00408163   8 t-inv F
 -0.285714  0.142857  0.000000    0.00408163   9 t-inv F
 -0.142857  0.142857  0.000000    0.00408163  10 t-inv F
  0.285714  0.285714  0.000000    0.00408163  11 t-inv F
  0.428571  0.285714  0.000000    0.00408163  12 t-inv F
 -0.428571  0.285714  0.000000    0.00408163  13 t-inv F
 -0.285714  0.285714  0.000000    0.00408163  14 t-inv F
  0.428571  0.428571  0.000000    0.00408163  15 t-inv F
 -0.428571  0.428571  0.000000    0.00408163  16 t-inv F
  0.000000  0.000000  0.200000    0.00408163  17 t-inv F
  0.142857  0.000000  0.200000    0.00408163  18 t-inv F
  0.285714  0.000000  0.200000    0.00408163  19 t-inv F
  0.428571  0.000000  0.200000    0.00408163  20 t-inv F
 -0.428571  0.000000  0.200000    0.00408163  21 t-inv F
 -0.285714  0.000000  0.200000    0.00408163  22 t-inv F
 -0.142857  0.000000  0.200000    0.00408163  23 t-inv F
  0.142857  0.142857  0.200000    0.00408163  24 t-inv F
  0.285714  0.142857  0.200000    0.00408163  25 t-inv F
  0.428571  0.142857  0.200000    0.00408163  26 t-inv F
 -0.428571  0.142857  0.200000    0.00408163  27 t-inv F
 -0.285714  0.142857  0.200000    0.00408163  28 t-inv F
 -0.142857  0.142857  0.200000    0.00408163  29 t-inv F
  0.285714  0.285714  0.200000    0.00408163  30 t-inv F
  0.428571  0.285714  0.200000    0.00408163  31 t-inv F
 -0.428571  0.285714  0.200000    0.00408163  32 t-inv F
 -0.285714  0.285714  0.200000    0.00408163  33 t-inv F
 -0.142857  0.285714  0.200000    0.00408163  34 t-inv F
  0.428571  0.428571  0.200000    0.00408163  35 t-inv F
 -0.428571  0.428571  0.200000    0.00408163  36 t-inv F
 -0.285714  0.428571  0.200000    0.00408163  37 t-inv F
 -0.142857  0.428571  0.200000    0.00408163  38 t-inv F
 -0.428571 -0.428571  0.200000    0.00408163  39 t-inv F
 -0.285714 -0.428571  0.200000    0.00408163  40 t-inv F
 -0.142857 -0.428571  0.200000    0.00408163  41 t-inv F
 -0.285714 -0.285714  0.200000    0.00408163  42 t-inv F
 -0.142857 -0.285714  0.200000    0.00408163  43 t-inv F
 -0.142857 -0.142857  0.200000    0.00408163  44 t-inv F
  0.000000  0.000000  0.400000    0.00408163  45 t-inv F
  0.142857  0.000000  0.400000    0.00408163  46 t-inv F
  0.285714  0.000000  0.400000    0.00408163  47 t-inv F
  0.428571  0.000000  0.400000    0.00408163  48 t-inv F
 -0.428571  0.000000  0.400000    0.00408163  49 t-inv F
 -0.285714  0.000000  0.400000    0.00408163  50 t-inv F
 -0.142857  0.000000  0.400000    0.00408163  51 t-inv F
  0.142857  0.142857  0.400000    0.00408163  52 t-inv F
  0.285714  0.142857  0.400000    0.00408163  53 t-inv F
  0.428571  0.142857  0.400000    0.00408163  54 t-inv F
 -0.428571  0.142857  0.400000    0.00408163  55 t-inv F
 -0.285714  0.142857  0.400000    0.00408163  56 t-inv F
 -0.142857  0.142857  0.400000    0.00408163  57 t-inv F
  0.285714  0.285714  0.400000    0.00408163  58 t-inv F
  0.428571  0.285714  0.400000    0.00408163  59 t-inv F
 -0.428571  0.285714  0.400000    0.00408163  60 t-inv F
 -0.285714  0.285714  0.400000    0.00408163  61 t-inv F
 -0.142857  0.285714  0.400000    0.00408163  62 t-inv F
  0.428571  0.428571  0.400000    0.00408163  63 t-inv F
 -0.428571  0.428571  0.400000    0.00408163  64 t-inv F
 -0.285714  0.428571  0.400000    0.00408163  65 t-inv F
 -0.142857  0.428571  0.400000    0.00408163  66 t-inv F
 -0.428571 -0.428571  0.400000    0.00408163  67 t-inv F
 -0.285714 -0.428571  0.400000    0.00408163  68 t-inv F
 -0.142857 -0.428571  0.400000    0.00408163  69 t-inv F
 -0.285714 -0.285714  0.400000    0.00408163  70 t-inv F
 -0.142857 -0.285714  0.400000    0.00408163  71 t-inv F
 -0.142857 -0.142857  0.400000    0.00408163  72 t-inv F
  0.000000  0.000000  0.000000    0.00000000  73 t-inv F
  0.000000  0.000000  0.033333    0.00000000  74 t-inv F
  0.000000  0.000000  0.066667    0.00000000  75 t-inv F
  0.000000  0.000000  0.100000    0.00000000  76 t-inv F
  0.000000  0.000000  0.133333    0.00000000  77 t-inv F
  0.000000  0.000000  0.166667    0.00000000  78 t-inv F
  0.000000  0.000000  0.200000    0.00000000  79 t-inv F
  0.000000  0.000000  0.233333    0.00000000  80 t-inv F
  0.000000  0.000000  0.266667    0.00000000  81 t-inv F
  0.000000  0.000000  0.300000    0.00000000  82 t-inv F
  0.000000  0.000000  0.333333    0.00000000  83 t-inv F
  0.000000  0.000000  0.366667    0.00000000  84 t-inv F
  0.000000  0.000000  0.400000    0.00000000  85 t-inv F
  0.000000  0.000000  0.433333    0.00000000  86 t-inv F
  0.000000  0.000000  0.466667    0.00000000  87 t-inv F
  0.000000  0.000000  0.500000    0.00000000  88 t-inv F
  0.000000  0.000000  0.500000    0.00000000  89 t-inv F
  0.017422  0.017422  0.500000    0.00000000  90 t-inv F
  0.034845  0.034845  0.500000    0.00000000  91 t-inv F
  0.052267  0.052267  0.500000    0.00000000  92 t-inv F
  0.069690  0.069690  0.500000    0.00000000  93 t-inv F
  0.087112  0.087112  0.500000    0.00000000  94 t-inv F
  0.104534  0.104534  0.500000    0.00000000  95 t-inv F
  0.121957  0.121957  0.500000    0.00000000  96 t-inv F
  0.139379  0.139379  0.500000    0.00000000  97 t-inv F
  0.156802  0.156802  0.500000    0.00000000  98 t-inv F
  0.174224  0.174224  0.500000    0.00000000  99 t-inv F
  0.191646  0.191646  0.500000    0.00000000 100 t-inv F
  0.209069  0.209069  0.500000    0.00000000 101 t-inv F
  0.226491  0.226491  0.500000    0.00000000 102 t-inv F
  0.243914  0.243914  0.500000    0.00000000 103 t-inv F
  0.261336  0.261336  0.500000    0.00000000 104 t-inv F
  0.278758  0.278758  0.500000    0.00000000 105 t-inv F
  0.296181  0.296181  0.500000    0.00000000 106 t-inv F
  0.313603  0.313603  0.500000    0.00000000 107 t-inv F
  0.331026  0.331026  0.500000    0.00000000 108 t-inv F
  0.348448  0.348448  0.500000    0.00000000 109 t-inv F
  0.365870  0.365870  0.500000    0.00000000 110 t-inv F
  0.383293  0.383293  0.500000    0.00000000 111 t-inv F
 -0.383293  0.616707  0.500000    0.00000000 112 t-inv F
 -0.402744  0.597256  0.500000    0.00000000 113 t-inv F
 -0.422195  0.577805  0.500000    0.00000000 114 t-inv F
 -0.441646  0.558354  0.500000    0.00000000 115 t-inv F
 -0.461098  0.538902  0.500000    0.00000000 116 t-inv F
 -0.480549  0.519451  0.500000    0.00000000 117 t-inv F
 -0.500000  0.500000  0.500000    0.00000000 118 t-inv F
 -0.500000  0.500000  0.500000    0.00000000 119 t-inv F
 -0.483333  0.483333  0.483333    0.00000000 120 t-inv F
 -0.466667  0.466667  0.466667    0.00000000 121 t-inv F
 -0.450000  0.450000  0.450000    0.00000000 122 t-inv F
 -0.433333  0.433333  0.433333    0.00000000 123 t-inv F
 -0.416667  0.416667  0.416667    0.00000000 124 t-inv F
 -0.400000  0.400000  0.400000    0.00000000 125 t-inv F
 -0.383333  0.383333  0.383333    0.00000000 126 t-inv F
 -0.366667  0.366667  0.366667    0.00000000 127 t-inv F
 -0.350000  0.350000  0.350000    0.00000000 128 t-inv F
 -0.333333  0.333333  0.333333    0.00000000 129 t-inv F
 -0.316667  0.316667  0.316667    0.00000000 130 t-inv F
 -0.300000  0.300000  0.300000    0.00000000 131 t-inv F
 -0.283333  0.283333  0.283333    0.00000000 132 t-inv F
 -0.266667  0.266667  0.266667    0.00000000 133 t-inv F
 -0.250000  0.250000  0.250000    0.00000000 134 t-inv F
 -0.233333  0.233333  0.233333    0.00000000 135 t-inv F
 -0.216667  0.216667  0.216667    0.00000000 136 t-inv F
 -0.200000  0.200000  0.200000    0.00000000 137 t-inv F
 -0.183333  0.183333  0.183333    0.00000000 138 t-inv F
 -0.166667  0.166667  0.166667    0.00000000 139 t-inv F
 -0.150000  0.150000  0.150000    0.00000000 140 t-inv F
 -0.133333  0.133333  0.133333    0.00000000 141 t-inv F
 -0.116667  0.116667  0.116667    0.00000000 142 t-inv F
 -0.100000  0.100000  0.100000    0.00000000 143 t-inv F
 -0.083333  0.083333  0.083333    0.00000000 144 t-inv F
 -0.066667  0.066667  0.066667    0.00000000 145 t-inv F
 -0.050000  0.050000  0.050000    0.00000000 146 t-inv F
 -0.033333  0.033333  0.033333    0.00000000 147 t-inv F
 -0.016667  0.016667  0.016667    0.00000000 148 t-inv F
  0.000000  0.000000  0.000000    0.00000000 149 t-inv F
  0.000000  0.000000  0.000000    0.00000000 150 t-inv F
  0.016667  0.016667  0.000000    0.00000000 151 t-inv F
  0.033333  0.033333  0.000000    0.00000000 152 t-inv F
  0.050000  0.050000  0.000000    0.00000000 153 t-inv F
  0.066667  0.066667  0.000000    0.00000000 154 t-inv F
  0.083333  0.083333  0.000000    0.00000000 155 t-inv F
  0.100000  0.100000  0.000000    0.00000000 156 t-inv F
  0.116667  0.116667  0.000000    0.00000000 157 t-inv F
  0.133333  0.133333  0.000000    0.00000000 158 t-inv F
  0.150000  0.150000  0.000000    0.00000000 159 t-inv F
  0.166667  0.166667  0.000000    0.00000000 160 t-inv F
  0.183333  0.183333  0.000000    0.00000000 161 t-inv F
  0.200000  0.200000  0.000000    0.00000000 162 t-inv F
  0.216667  0.216667  0.000000    0.00000000 163 t-inv F
  0.233333  0.233333  0.000000    0.00000000 164 t-inv F
  0.250000  0.250000  0.000000    0.00000000 165 t-inv F
  0.266667  0.266667  0.000000    0.00000000 166 t-inv F
  0.283333  0.283333  0.000000    0.00000000 167 t-inv F
  0.300000  0.300000  0.000000    0.00000000 168 t-inv F
  0.316667  0.316667  0.000000    0.00000000 169 t-inv F
  0.333333  0.333333  0.000000    0.00000000 170 t-inv F
  0.350000  0.350000  0.000000    0.00000000 171 t-inv F
  0.366667  0.366667  0.000000    0.00000000 172 t-inv F
  0.383333  0.383333  0.000000    0.00000000 173 t-inv F
  0.400000  0.400000  0.000000    0.00000000 174 t-inv F
  0.416667  0.416667  0.000000    0.00000000 175 t-inv F
  0.433333  0.433333  0.000000    0.00000000 176 t-inv F
  0.450000  0.450000  0.000000    0.00000000 177 t-inv F
  0.466667  0.466667  0.000000    0.00000000 178 t-inv F
  0.483333  0.483333  0.000000    0.00000000 179 t-inv F
  0.500000  0.500000  0.000000    0.00000000 180 t-inv F
  0.000000  0.500000  0.500000    0.00000000 181 t-inv F
  0.000000  0.482759  0.482759    0.00000000 182 t-inv F
  0.000000  0.465517  0.465517    0.00000000 183 t-inv F
  0.000000  0.448276  0.448276    0.00000000 184 t-inv F
  0.000000  0.431034  0.431034    0.00000000 185 t-inv F
  0.000000  0.413793  0.413793    0.00000000 186 t-inv F
  0.000000  0.396552  0.396552    0.00000000 187 t-inv F
  0.000000  0.379310  0.379310    0.00000000 188 t-inv F
  0.000000  0.362069  0.362069    0.00000000 189 t-inv F
  0.000000  0.344828  0.344828    0.00000000 190 t-inv F
  0.000000  0.327586  0.327586    0.00000000 191 t-inv F
  0.000000  0.310345  0.310345    0.00000000 192 t-inv F
  0.000000  0.293103  0.293103    0.00000000 193 t-inv F
  0.000000  0.275862  0.275862    0.00000000 194 t-inv F
  0.000000  0.258621  0.258621    0.00000000 195 t-inv F
  0.000000  0.241379  0.241379    0.00000000 196 t-inv F
  0.000000  0.224138  0.224138    0.00000000 197 t-inv F
  0.000000  0.206897  0.206897    0.00000000 198 t-inv F
  0.000000  0.189655  0.189655    0.00000000 199 t-inv F
  0.000000  0.172414  0.172414    0.00000000 200 t-inv F
  0.000000  0.155172  0.155172    0.00000000 201 t-inv F
  0.000000  0.137931  0.137931    0.00000000 202 t-inv F
  0.000000  0.120690  0.120690    0.00000000 203 t-inv F
  0.000000  0.103448  0.103448    0.00000000 204 t-inv F
  0.000000  0.086207  0.086207    0.00000000 205 t-inv F
  0.000000  0.068966  0.068966    0.00000000 206 t-inv F
  0.000000  0.051724  0.051724    0.00000000 207 t-inv F
  0.000000  0.034483  0.034483    0.00000000 208 t-inv F
  0.000000  0.017241  0.017241    0.00000000 209 t-inv F
  0.000000  0.000000  0.000000    0.00000000 210 t-inv F
  0.000000  0.000000  0.000000    0.00000000 211 t-inv F
  0.000000  0.026316  0.000000    0.00000000 212 t-inv F
  0.000000  0.052632  0.000000    0.00000000 213 t-inv F
  0.000000  0.078947  0.000000    0.00000000 214 t-inv F
  0.000000  0.105263  0.000000    0.00000000 215 t-inv F
  0.000000  0.131579  0.000000    0.00000000 216 t-inv F
  0.000000  0.157895  0.000000    0.00000000 217 t-inv F
  0.000000  0.184211  0.000000    0.00000000 218 t-inv F
  0.000000  0.210526  0.000000    0.00000000 219 t-inv F
  0.000000  0.236842  0.000000    0.00000000 220 t-inv F
  0.000000  0.263158  0.000000    0.00000000 221 t-inv F
  0.000000  0.289474  0.000000    0.00000000 222 t-inv F
  0.000000  0.315789  0.000000    0.00000000 223 t-inv F
  0.000000  0.342105  0.000000    0.00000000 224 t-inv F
  0.000000  0.368421  0.000000    0.00000000 225 t-inv F
  0.000000  0.394737  0.000000    0.00000000 226 t-inv F
  0.000000  0.421053  0.000000    0.00000000 227 t-inv F
  0.000000  0.447368  0.000000    0.00000000 228 t-inv F
  0.000000  0.473684  0.000000    0.00000000 229 t-inv F
  0.000000  0.500000  0.000000    0.00000000 230 t-inv F
  0.000000  0.142857  0.000000    0.00408163   2 t-inv F
  0.000000  0.285714  0.000000    0.00408163   3 t-inv F
  0.000000  0.428571  0.000000    0.00408163   4 t-inv F
  0.142857  0.285714  0.000000    0.00408163   6 t-inv F
  0.142857  0.428571  0.000000    0.00408163   7 t-inv F
  0.142857 -0.428571  0.000000    0.00408163   8 t-inv F
  0.142857 -0.285714  0.000000    0.00408163   9 t-inv F
  0.142857 -0.142857  0.000000    0.00408163  10 t-inv F
  0.285714  0.428571  0.000000    0.00408163  12 t-inv F
  0.285714 -0.428571  0.000000    0.00408163  13 t-inv F
  0.285714 -0.285714  0.000000    0.00408163  14 t-inv F
  0.428571 -0.428571  0.000000    0.00408163  16 t-inv F
  0.000000  0.142857  0.200000    0.00408163  18 t-inv F
  0.000000  0.285714  0.200000    0.00408163  19 t-inv F
  0.000000  0.428571  0.200000    0.00408163  20 t-inv F
  0.000000 -0.428571  0.200000    0.00408163  21 t-inv F
  0.000000 -0.285714  0.200000    0.00408163  22 t-inv F
  0.000000 -0.142857  0.200000    0.00408163  23 t-inv F
  0.142857  0.285714  0.200000    0.00408163  25 t-inv F
  0.142857  0.428571  0.200000    0.00408163  26 t-inv F
  0.142857 -0.428571  0.200000    0.00408163  27 t-inv F
  0.142857 -0.285714  0.200000    0.00408163  28 t-inv F
  0.142857 -0.142857  0.200000    0.00408163  29 t-inv F
  0.285714  0.428571  0.200000    0.00408163  31 t-inv F
  0.285714 -0.428571  0.200000    0.00408163  32 t-inv F
  0.285714 -0.285714  0.200000    0.00408163  33 t-inv F
  0.285714 -0.142857  0.200000    0.00408163  34 t-inv F
  0.428571 -0.428571  0.200000    0.00408163  36 t-inv F
  0.428571 -0.285714  0.200000    0.00408163  37 t-inv F
  0.428571 -0.142857  0.200000    0.00408163  38 t-inv F
 -0.428571 -0.285714  0.200000    0.00408163  40 t-inv F
 -0.428571 -0.142857  0.200000    0.00408163  41 t-inv F
 -0.285714 -0.142857  0.200000    0.00408163  43 t-inv F
  0.000000  0.142857  0.400000    0.00408163  46 t-inv F
  0.000000  0.285714  0.400000    0.00408163  47 t-inv F
  0.000000  0.428571  0.400000    0.00408163  48 t-inv F
  0.000000 -0.428571  0.400000    0.00408163  49 t-inv F
  0.000000 -0.285714  0.400000    0.00408163  50 t-inv F
  0.000000 -0.142857  0.400000    0.00408163  51 t-inv F
  0.142857  0.285714  0.400000    0.00408163  53 t-inv F
  0.142857  0.428571  0.400000    0.00408163  54 t-inv F
  0.142857 -0.428571  0.400000    0.00408163  55 t-inv F
  0.142857 -0.285714  0.400000    0.00408163  56 t-inv F
  0.142857 -0.142857  0.400000    0.00408163  57 t-inv F
  0.285714  0.428571  0.400000    0.00408163  59 t-inv F
  0.285714 -0.428571  0.400000    0.00408163  60 t-inv F
  0.285714 -0.285714  0.400000    0.00408163  61 t-inv F
  0.285714 -0.142857  0.400000    0.00408163  62 t-inv F
  0.428571 -0.428571  0.400000    0.00408163  64 t-inv F
  0.428571 -0.285714  0.400000    0.00408163  65 t-inv F
  0.428571 -0.142857  0.400000    0.00408163  66 t-inv F
 -0.428571 -0.285714  0.400000    0.00408163  68 t-inv F
 -0.428571 -0.142857  0.400000    0.00408163  69 t-inv F
 -0.285714 -0.142857  0.400000    0.00408163  71 t-inv F
 -0.142857  0.000000  0.000000    0.00408163   2 t-inv T
  0.000000 -0.142857  0.000000    0.00408163   2 t-inv T
 -0.285714  0.000000  0.000000    0.00408163   3 t-inv T
  0.000000 -0.285714  0.000000    0.00408163   3 t-inv T
 -0.428571  0.000000  0.000000    0.00408163   4 t-inv T
  0.000000 -0.428571  0.000000    0.00408163   4 t-inv T
 -0.142857 -0.142857  0.000000    0.00408163   5 t-inv T
 -0.285714 -0.142857  0.000000    0.00408163   6 t-inv T
 -0.142857 -0.285714  0.000000    0.00408163   6 t-inv T
 -0.428571 -0.142857  0.000000    0.00408163   7 t-inv T
 -0.142857 -0.428571  0.000000    0.00408163   7 t-inv T
  0.428571 -0.142857  0.000000    0.00408163   8 t-inv T
 -0.142857  0.428571  0.000000    0.00408163   8 t-inv T
  0.285714 -0.142857  0.000000    0.00408163   9 t-inv T
 -0.142857  0.285714  0.000000    0.00408163   9 t-inv T
 -0.285714 -0.285714  0.000000    0.00408163  11 t-inv T
 -0.428571 -0.285714  0.000000    0.00408163  12 t-inv T
 -0.285714 -0.428571  0.000000    0.00408163  12 t-inv T
  0.428571 -0.285714  0.000000    0.00408163  13 t-inv T
 -0.285714  0.428571  0.000000    0.00408163  13 t-inv T
 -0.428571 -0.428571  0.000000    0.00408163  15 t-inv T
  0.000000  0.000000 -0.200000    0.00408163  17 t-inv T
 -0.142857  0.000000 -0.200000    0.00408163  18 t-inv T
  0.000000 -0.142857 -0.200000    0.00408163  18 t-inv T
 -0.285714  0.000000 -0.200000    0.00408163  19 t-inv T
  0.000000 -0.285714 -0.200000    0.00408163  19 t-inv T
 -0.428571  0.000000 -0.200000    0.00408163  20 t-inv T
  0.000000 -0.428571 -0.200000    0.00408163  20 t-inv T
  0.428571  0.000000 -0.200000    0.00408163  21 t-inv T
  0.000000  0.428571 -0.200000    0.00408163  21 t-inv T
  0.285714  0.000000 -0.200000    0.00408163  22 t-inv T
  0.000000  0.285714 -0.200000    0.00408163  22 t-inv T
  0.142857  0.000000 -0.200000    0.00408163  23 t-inv T
  0.000000  0.142857 -0.200000    0.00408163  23 t-inv T
 -0.142857 -0.142857 -0.200000    0.00408163  24 t-inv T
 -0.285714 -0.142857 -0.200000    0.00408163  25 t-inv T
 -0.142857 -0.285714 -0.200000    0.00408163  25 t-inv T
 -0.428571 -0.142857 -0.200000    0.00408163  26 t-inv T
 -0.142857 -0.428571 -0.200000    0.00408163  26 t-inv T
  0.428571 -0.142857 -0.200000    0.00408163  27 t-inv T
 -0.142857  0.428571 -0.200000    0.00408163  27 t-inv T
  0.285714 -0.142857 -0.200000    0.00408163  28 t-inv T
 -0.142857  0.285714 -0.200000    0.00408163  28 t-inv T
  0.142857 -0.142857 -0.200000    0.00408163  29 t-inv T
 -0.142857  0.142857 -0.200000    0.00408163  29 t-inv T
 -0.285714 -0.285714 -0.200000    0.00408163  30 t-inv T
 -0.428571 -0.285714 -0.200000    0.00408163  31 t-inv T
 -0.285714 -0.428571 -0.200000    0.00408163  31 t-inv T
  0.428571 -0.285714 -0.200000    0.00408163  32 t-inv T
 -0.285714  0.428571 -0.200000    0.00408163  32 t-inv T
  0.285714 -0.285714 -0.200000    0.00408163  33 t-inv T
 -0.285714  0.285714 -0.200000    0.00408163  33 t-inv T
  0.142857 -0.285714 -0.200000    0.00408163  34 t-inv T
 -0.285714  0.142857 -0.200000    0.00408163  34 t-inv T
 -0.428571 -0.428571 -0.200000    0.00408163  35 t-inv T
  0.428571 -0.428571 -0.200000    0.00408163  36 t-inv T
 -0.428571  0.428571 -0.200000    0.00408163  36 t-inv T
  0.285714 -0.428571 -0.200000    0.00408163  37 t-inv T
 -0.428571  0.285714 -0.200000    0.00408163  37 t-inv T
  0.142857 -0.428571 -0.200000    0.00408163  38 t-inv T
 -0.428571  0.142857 -0.200000    0.00408163  38 t-inv T
  0.428571  0.428571 -0.200000    0.00408163  39 t-inv T
  0.285714  0.428571 -0.200000    0.00408163  40 t-inv T
  0.428571  0.285714 -0.200000    0.00408163  40 t-inv T
  0.142857  0.428571 -0.200000    0.00408163  41 t-inv T
  0.428571  0.142857 -0.200000    0.00408163  41 t-inv T
  0.285714  0.285714 -0.200000    0.00408163  42 t-inv T
  0.142857  0.285714 -0.200000    0.00408163  43 t-inv T
  0.285714  0.142857 -0.200000    0.00408163  43 t-inv T
  0.142857  0.142857 -0.200000    0.00408163  44 t-inv T
  0.000000  0.000000 -0.400000    0.00408163  45 t-inv T
 -0.142857  0.000000 -0.400000    0.00408163  46 t-inv T
  0.000000 -0.142857 -0.400000    0.00408163  46 t-inv T
 -0.285714  0.000000 -0.400000    0.00408163  47 t-inv T
  0.000000 -0.285714 -0.400000    0.00408163  47 t-inv T
 -0.428571  0.000000 -0.400000    0.00408163  48 t-inv T
  0.000000 -0.428571 -0.400000    0.00408163  48 t-inv T
  0.428571  0.000000 -0.400000    0.00408163  49 t-inv T
  0.000000  0.428571 -0.400000    0.00408163  49 t-inv T
  0.285714  0.000000 -0.400000    0.00408163  50 t-inv T
  0.000000  0.285714 -0.400000    0.00408163  50 t-inv T
  0.142857  0.000000 -0.400000    0.00408163  51 t-inv T
  0.000000  0.142857 -0.400000    0.00408163  51 t-inv T
 -0.142857 -0.142857 -0.400000    0.00408163  52 t-inv T
 -0.285714 -0.142857 -0.400000    0.00408163  53 t-inv T
 -0.142857 -0.285714 -0.400000    0.00408163  53 t-inv T
 -0.428571 -0.142857 -0.400000    0.00408163  54 t-inv T
 -0.142857 -0.428571 -0.400000    0.00408163  54 t-inv T
  0.428571 -0.142857 -0.400000    0.00408163  55 t-inv T
 -0.142857  0.428571 -0.400000    0.00408163  55 t-inv T
  0.285714 -0.142857 -0.400000    0.00408163  56 t-inv T
 -0.142857  0.285714 -0.400000    0.00408163  56 t-inv T
  0.142857 -0.142857 -0.400000    0.00408163  57 t-inv T
 -0.142857  0.142857 -0.400000    0.00408163  57 t-inv T
 -0.285714 -0.285714 -0.400000    0.00408163  58 t-inv T
 -0.428571 -0.285714 -0.400000    0.00408163  59 t-inv T
 -0.285714 -0.428571 -0.400000    0.00408163  59 t-inv T
  0.428571 -0.285714 -0.400000    0.00408163  60 t-inv T
 -0.285714  0.428571 -0.400000    0.00408163  60 t-inv T
  0.285714 -0.285714 -0.400000    0.00408163  61 t-inv T
 -0.285714  0.285714 -0.400000    0.00408163  61 t-inv T
  0.142857 -0.285714 -0.400000    0.00408163  62 t-inv T
 -0.285714  0.142857 -0.400000    0.00408163  62 t-inv T
 -0.428571 -0.428571 -0.400000    0.00408163  63 t-inv T
  0.428571 -0.428571 -0.400000    0.00408163  64 t-inv T
 -0.428571  0.428571 -0.400000    0.00408163  64 t-inv T
  0.285714 -0.428571 -0.400000    0.00408163  65 t-inv T
 -0.428571  0.285714 -0.400000    0.00408163  65 t-inv T
  0.142857 -0.428571 -0.400000    0.00408163  66 t-inv T
 -0.428571  0.142857 -0.400000    0.00408163  66 t-inv T
  0.428571  0.428571 -0.400000    0.00408163  67 t-inv T
  0.285714  0.428571 -0.400000    0.00408163  68 t-inv T
  0.428571  0.285714 -0.400000    0.00408163  68 t-inv T
  0.142857  0.428571 -0.400000    0.00408163  69 t-inv T
  0.428571  0.142857 -0.400000    0.00408163  69 t-inv T
  0.285714  0.285714 -0.400000    0.00408163  70 t-inv T
  0.142857  0.285714 -0.400000    0.00408163  71 t-inv T
  0.285714  0.142857 -0.400000    0.00408163  71 t-inv T
  0.142857  0.142857 -0.400000    0.00408163  72 t-inv T


--------------------------------------------------------------------------------------------------------




 Dimension of arrays:
   k-points           NKPTS =    230   k-points in BZ     NKDIM =    403   number of bands    NBANDS=     24
   number of dos      NEDOS =    301   number of ions     NIONS =      5
   non local maximal  LDIM  =      8   non local SUM 2l+1 LMDIM =     32
   total plane-waves  NPLWV =  43008
   max r-space proj   IRMAX =   9283   max aug-charges    IRDMAX= 214048
   dimension x,y,z NGX =    32 NGY =   32 NGZ =   42
   dimension x,y,z NGXF=    64 NGYF=   64 NGZF=   84
   support grid    NGXF=   128 NGYF=  128 NGZF=  168
   ions per type =               1   1   3
   NGX,Y,Z   is equivalent  to a cutoff of  12.74, 12.74, 12.35 a.u.
   NGXF,Y,Z  is equivalent  to a cutoff of  25.48, 25.48, 24.70 a.u.

 SYSTEM =  matgen-band                             
 POSCAR =  624028                                  

 Startparameter for this run:
   NWRITE =      2    write-flag & timer
   PREC   = accura    normal or accurate (medium, high low for compatibility)
   ISTART =      1    job   : 0-new  1-cont  2-samecut
   ICHARG =     11    charge: 1-file 2-atom 10-const
   ISPIN  =      2    spin polarized calculation?
   LNONCOLLINEAR =      F non collinear calculations
   LSORBIT =      F    spin-orbit coupling
   INIWAV =      1    electr: 0-lowe 1-rand  2-diag
   LASPH  =      F    aspherical Exc in radial PAW
   METAGGA=      F    non-selfconsistent MetaGGA calc.

 Electronic Relaxation 1
   ENCUT  =  520.0 eV  38.22 Ry    6.18 a.u.   7.76  7.76 10.51*2*pi/ulx,y,z
   ENINI  =  520.0     initial cutoff
   ENAUG  =  583.6 eV  augmentation charge cutoff
   NELM   =    140;   NELMIN=  6; NELMDL=  0     # of ELM steps 
   EDIFF  = 0.1E-03   stopping-criterion for ELM
   LREAL  =      T    real-space projection
   NLSPLINE    = F    spline interpolate recip. space projectors
   LCOMPAT=      F    compatible to vasp.4.4
   GGA_COMPAT  = T    GGA compatible to vasp.4.4-vasp.4.6
   LMAXPAW     = -100 max onsite density
   LMAXMIX     =    6 max onsite mixed and CHGCAR
   VOSKOWN=      0    Vosko Wilk Nusair interpolation
   ROPT   =   -0.00025  -0.00025  -0.00025
 Ionic relaxation
   EDIFFG = -.1E-01   stopping-criterion for IOM
   NSW    =      0    number of steps for IOM
   NBLOCK =      1;   KBLOCK =      1    inner block; outer block 
   IBRION =     -1    ionic relax: 0-MD 1-quasi-New 2-CG
   NFREE  =      0    steps in history (QN), initial steepest desc. (CG)
   ISIF   =      0    stress and relaxation
   IWAVPR =     10    prediction:  0-non 1-charg 2-wave 3-comb
   ISYM   =      2    0-nonsym 1-usesym 2-fastsym
   LCORR  =      T    Harris-Foulkes like correction to forces

   POTIM  = 0.0500    time-step for ionic-motion
   TEIN   =    0.0    initial temperature
   TEBEG  =    0.0;   TEEND  =   0.0 temperature during run
   SMASS  =  -3.00    Nose mass-parameter (am)
   estimated Nose-frequenzy (Omega)   =  0.10E-29 period in steps =****** mass=  -0.398E-27a.u.
   SCALEE = 1.0000    scale energy and forces
   NPACO  =    256;   APACO  = 16.0  distance and # of slots for P.C.
   PSTRESS=    0.0 pullay stress

  Mass of Ions in am
   POMASS =  58.93138.90 28.09
  Ionic Valenz
   ZVAL   =   9.00 11.00  4.00
  Atomic Wigner-Seitz radii
   RWIGS  =  -1.00 -1.00 -1.00
  virtual crystal weights 
   VCA    =   1.00  1.00  1.00
   NELECT =      32.0000    total number of electrons
   NUPDOWN=      -1.0000    fix difference up-down

 DOS related values:
   EMIN   =  10.00;   EMAX   =-10.00  energy-range for DOS
   EFERMI =   0.00
   ISMEAR =     0;   SIGMA  =   0.05  broadening in eV -4-tet -1-fermi 0-gaus

 Electronic relaxation 2 (details)
   IALGO  =     53    algorithm
   LDIAG  =      T    sub-space diagonalisation (order eigenvalues)
   LSUBROT=      F    optimize rotation matrix (better conditioning)
   TURBO    =      0    0=normal 1=particle mesh
   IRESTART =      0    0=no restart 2=restart with 2 vectors
   NREBOOT  =      0    no. of reboots
   NMIN     =      0    reboot dimension
   EREF     =   0.00    reference energy to select bands
   IMIX   =      4    mixing-type and parameters
     AMIX     =   0.40;   BMIX     =  1.00
     AMIX_MAG =   1.60;   BMIX_MAG =  1.00
     AMIN     =   0.10
     WC   =   100.;   INIMIX=   1;  MIXPRE=   1;  MAXMIX= -45

 Intra band minimization:
   WEIMIN = 0.0000     energy-eigenvalue tresh-hold
   EBREAK =  0.10E-05  absolut break condition
   DEPER  =   0.30     relativ break condition  

   TIME   =   0.40     timestep for ELM

  volume/ion in A,a.u.               =      16.81       113.45
  Fermi-wavevector in a.u.,A,eV,Ry     =   1.186478  2.242118 19.153320  1.407729
  Thomas-Fermi vector in A             =   2.322650
 
 Write flags
   LWAVE        =      T    write WAVECAR
   LDOWNSAMPLE  =      F    k-point downsampling of WAVECAR
   LCHARG       =      T    write CHGCAR
   LVTOT        =      F    write LOCPOT, total local potential
   LVHAR        =      F    write LOCPOT, Hartree potential only
   LELF         =      F    write electronic localiz. function (ELF)
   LORBIT       =     11    0 simple, 1 ext, 2 COOP (PROOUT), +10 PAW based schemes


 Dipole corrections
   LMONO  =      F    monopole corrections only (constant potential shift)
   LDIPOL =      F    correct potential (dipole corrections)
   IDIPOL =      0    1-x, 2-y, 3-z, 4-all directions 
   EPSILON=  1.0000000 bulk dielectric constant

 LDA+U is selected, type is set to LDAUTYPE =  2
   angular momentum for each species LDAUL =     2    3   -1
   U (eV)           for each species LDAUU =   5.0  7.5  0.0
   J (eV)           for each species LDAUJ =   0.0  0.0  0.0
 Exchange correlation treatment:
   GGA     =    --    GGA type
   LEXCH   =     8    internal setting for exchange type
   VOSKOWN=      0    Vosko Wilk Nusair interpolation
   EXXOEP  =     0    0=HF, 1=EXX-LHF (local Hartree Fock) 2=EXX OEP
   LHFCALC =     T    Hartree Fock is set to
   LSYMGRAD=     F    symmetrize gradient (conserves proper symmetry)
   PRECFOCK=normal    Normal, Fast or Accurate (Low or Medium for compatibility)
   LRHFCALC=     F    long range Hartree Fock
   LRSCOR  =     F    long range correlation only (use DFT for short range part)
   LTHOMAS =     F    Thomas Fermi screening in HF
   LMODELHF=     F    short range full HF, long range fraction AEXX
   ENCUT4O =  -1.0   cutoff for four orbital integrals eV
   LMAXFOCK=     4    L truncation for augmentation on plane wave grid
   LMAXFOCKAE=  -1    L truncation for all-electron charge restoration on plane wave grid
   NMAXFOCKAE=   1    number of basis functions for all-electron charge restoration
   LFOCKAEDFT=     F  apply the AE augmentation even for DFT
   NKREDX  =     1    reduce k-point grid by
   NKREDY  =     1    reduce k-point grid by
   NKREDZ  =     1    reduce k-point grid by
   SHIFTRED=     F    shift reduced grid of Gamma
   HFKIDENT=     F    idential grid for each k-point
   ODDONLY =     F    use only odd q-grid points
   EVENONLY=     F    use only even q-grid points
   HFALPHA =   -1.0000 decay constant for conv. correction
   MCALPHA =    0.0000 extent of test-charge in conv. correction in multipole expansion
   AEXX    =    0.2500 exact exchange contribution
   HFSCREEN=    0.2000 screening length (either q_TF or 0.3 A-1)
   HFSCREENC=   0.2000 screening length for correlation (either q_TF or 0.3 A-1)
   HFRCUT  =    0.0000 spherical cutoff for potential kernel
   ALDAX   =    0.7500 LDA exchange part
   AGGAX   =    0.7500 GGA exchange part
   ALDAC   =    1.0000 LDA correlation
   AGGAC   =    1.0000 GGA correlation
   ENCUTFOCK=  -1.0 apply spherical cutoff to Coloumb kernel
   NBANDSGWLOW=     1    first orbital included in HF term
   NBLOCK_FOCK=    64    blocking factor in FOCK_ACC
 Linear response parameters
   LEPSILON=     F    determine dielectric tensor
   LRPA    =     F    only Hartree local field effects (RPA)
   LNABLA  =     F    use nabla operator in PAW spheres
   LVEL    =     F    velocity operator in full k-point grid
   LINTERFAST=   F  fast interpolation
   KINTER  =     0    interpolate to denser k-point grid
   CSHIFT  =0.1000    complex shift for real part using Kramers Kronig
   OMEGAMAX=  -1.0    maximum frequency
   DEG_THRESHOLD= 0.2000000E-02 threshold for treating states as degnerate
   RTIME   =   -0.100 relaxation time in fs
  (WPLASMAI=    0.000 imaginary part of plasma frequency in eV, 0.658/RTIME)
   DFIELD  = 0.0000000 0.0000000 0.0000000 field for delta impulse in time
 
 Orbital magnetization related:
   ORBITALMAG=     F  switch on orbital magnetization
   LCHIMAG   =     F  perturbation theory with respect to B field
   DQ        =  0.001000  dq finite difference perturbation B field
   LLRAUG    =     F  two centre corrections for induced B field



--------------------------------------------------------------------------------------------------------


 Static calculation
 charge density and potential remain constant during run
 spin polarized calculation
 Conjugate gradient for all bands (Freysoldt, et al. PRB 79, 241103 (2009))
 perform sub-space diagonalisation
    before iterative eigenvector-optimisation
 no mixing
 using additional bands            8
 real space projection scheme for non local part
 use partial core corrections
 calculate Harris-corrections to forces 
   (improved forces if not selfconsistent)
 use gradient corrections 
 WARNING: stress and forces are not correct
  (second derivative of E(xc) not defined)
 use of overlap-Matrix (Vanderbilt PP)
 Gauss-broadening in eV      SIGMA  =   0.05


--------------------------------------------------------------------------------------------------------


  energy-cutoff  :      520.00
  volume of cell :       84.06
      direct lattice vectors                 reciprocal lattice vectors
    -4.175296664 -0.000107409  0.000781902    -0.239484530  0.000025570  0.103646578
    -0.000107409 -4.175296664  0.000781902     0.000025570 -0.239484530  0.103646578
     2.086769744  2.086769744  4.821150135     0.000038836  0.000038836  0.207385767

  length of vectors
     4.175296739  4.175296739  5.652672338     0.260951057  0.260951057  0.207385774


 
 old parameters found on file WAVECAR:
  energy-cutoff  :      520.00
  volume of cell :       84.06
      direct lattice vectors                 reciprocal lattice vectors
    -4.175296664 -0.000107409  0.000781902    -0.239484530  0.000025570  0.103646578
    -0.000107409 -4.175296664  0.000781902     0.000025570 -0.239484530  0.103646578
     2.086769744  2.086769744  4.821150135     0.000038836  0.000038836  0.207385767

  length of vectors

 
 k-points in units of 2pi/SCALE and weight: 0.040   7   7   5   72  0.040  158    7 
   0.00000000  0.00000000  0.00000000       0.004
  -0.03421208  0.00000365  0.01480665       0.016
  -0.06842415  0.00000731  0.02961331       0.016
  -0.10263623  0.00001096  0.04441996       0.016
  -0.03420842 -0.03420842  0.02961331       0.008
  -0.06842050 -0.03420477  0.04441996       0.016
  -0.10263257 -0.03420112  0.05922662       0.016
   0.10263988 -0.03422303 -0.02961331       0.016
   0.06842780 -0.03421938 -0.01480665       0.016
   0.03421573 -0.03421573  0.00000000       0.008
  -0.06841685 -0.06841685  0.05922662       0.008
  -0.10262892 -0.06841319  0.07403327       0.016
   0.10264353 -0.06843511 -0.01480665       0.016
   0.06843146 -0.06843146  0.00000000       0.008
  -0.10262527 -0.10262527  0.08883992       0.008
   0.10264719 -0.10264719  0.00000000       0.008
   0.00000777  0.00000777  0.04147715       0.008
  -0.03420431  0.00001142  0.05628381       0.016
  -0.06841638  0.00001507  0.07109046       0.016
  -0.10262846  0.00001873  0.08589712       0.016
   0.10264399 -0.00000319 -0.00294281       0.016
   0.06843192  0.00000046  0.01186385       0.016
   0.03421984  0.00000411  0.02667050       0.016
  -0.03420066 -0.03420066  0.07109046       0.008
  -0.06841273 -0.03419700  0.08589712       0.016
  -0.10262481 -0.03419335  0.10070377       0.016
   0.10264765 -0.03421527  0.01186385       0.016
   0.06843557 -0.03421161  0.02667050       0.016
   0.03422350 -0.03420796  0.04147715       0.016
  -0.06840908 -0.06840908  0.10070377       0.008
  -0.10262115 -0.06840543  0.11551042       0.016
   0.10265130 -0.06842734  0.02667050       0.016
   0.06843922 -0.06842369  0.04147715       0.016
   0.03422715 -0.06842004  0.05628381       0.016
  -0.10261750 -0.10261750  0.13031708       0.008
   0.10265495 -0.10263942  0.04147715       0.016
   0.06844288 -0.10263577  0.05628381       0.016
   0.03423080 -0.10263211  0.07109046       0.016
   0.10263304  0.10263304 -0.04736277       0.008
   0.06842096  0.10263669 -0.03255612       0.016
   0.03420888  0.10264034 -0.01774946       0.016
   0.06842461  0.06842461 -0.01774946       0.008
   0.03421254  0.06842827 -0.00294281       0.016
   0.03421619  0.03421619  0.01186385       0.008
   0.00001553  0.00001553  0.08295431       0.008
  -0.03419654  0.00001919  0.09776096       0.016
  -0.06840862  0.00002284  0.11256761       0.016
  -0.10262069  0.00002649  0.12737427       0.016
   0.10265176  0.00000458  0.03853434       0.016
   0.06843969  0.00000823  0.05334100       0.016
   0.03422761  0.00001188  0.06814765       0.016
  -0.03419289 -0.03419289  0.11256761       0.008
  -0.06840496 -0.03418924  0.12737427       0.016
  -0.10261704 -0.03418558  0.14218092       0.016
   0.10265541 -0.03420750  0.05334100       0.016
   0.06844334 -0.03420385  0.06814765       0.016
   0.03423126 -0.03420019  0.08295431       0.016
  -0.06840131 -0.06840131  0.14218092       0.008
  -0.10261339 -0.06839766  0.15698758       0.016
   0.10265907 -0.06841958  0.06814765       0.016
   0.06844699 -0.06841592  0.08295431       0.016
   0.03423492 -0.06841227  0.09776096       0.016
  -0.10260973 -0.10260973  0.17179423       0.008
   0.10266272 -0.10263165  0.08295431       0.016
   0.06845064 -0.10262800  0.09776096       0.016
   0.03423857 -0.10262435  0.11256761       0.016
   0.10264080  0.10264080 -0.00588562       0.008
   0.06842873  0.10264446  0.00892104       0.016
   0.03421665  0.10264811  0.02372769       0.016
   0.06843238  0.06843238  0.02372769       0.008
   0.03422030  0.06843603  0.03853434       0.016
   0.03422396  0.03422396  0.05334100       0.008
   0.00000000  0.00000000  0.00000000       0.000
   0.00000129  0.00000129  0.00691286       0.000
   0.00000259  0.00000259  0.01382572       0.000
   0.00000388  0.00000388  0.02073858       0.000
   0.00000518  0.00000518  0.02765144       0.000
   0.00000647  0.00000647  0.03456429       0.000
   0.00000777  0.00000777  0.04147715       0.000
   0.00000906  0.00000906  0.04839001       0.000
   0.00001036  0.00001036  0.05530287       0.000
   0.00001165  0.00001165  0.06221573       0.000
   0.00001295  0.00001295  0.06912859       0.000
   0.00001424  0.00001424  0.07604145       0.000
   0.00001553  0.00001553  0.08295431       0.000
   0.00001683  0.00001683  0.08986717       0.000
   0.00001812  0.00001812  0.09678002       0.000
   0.00001942  0.00001942  0.10369288       0.000
   0.00001942  0.00001942  0.10369288       0.000
  -0.00415253 -0.00415253  0.10730443       0.000
  -0.00832448 -0.00832448  0.11091597       0.000
  -0.01249643 -0.01249643  0.11452751       0.000
  -0.01666838 -0.01666838  0.11813906       0.000
  -0.02084033 -0.02084033  0.12175060       0.000
  -0.02501228 -0.02501228  0.12536215       0.000
  -0.02918423 -0.02918423  0.12897369       0.000
  -0.03335618 -0.03335618  0.13258523       0.000
  -0.03752812 -0.03752812  0.13619678       0.000
  -0.04170007 -0.04170007  0.13980832       0.000
  -0.04587202 -0.04587202  0.14341986       0.000
  -0.05004397 -0.05004397  0.14703141       0.000
  -0.05421592 -0.05421592  0.15064295       0.000
  -0.05838787 -0.05838787  0.15425450       0.000
  -0.06255982 -0.06255982  0.15786604       0.000
  -0.06673177 -0.06673177  0.16147758       0.000
  -0.07090372 -0.07090372  0.16508913       0.000
  -0.07507567 -0.07507567  0.16870067       0.000
  -0.07924762 -0.07924762  0.17231221       0.000
  -0.08341956 -0.08341956  0.17592376       0.000
  -0.08759151 -0.08759151  0.17953530       0.000
  -0.09176346 -0.09176346  0.18314684       0.000
   0.09182787 -0.14768223  0.12788550       0.000
   0.09648564 -0.14302447  0.12385340       0.000
   0.10114340 -0.13836670  0.11982129       0.000
   0.10580117 -0.13370893  0.11578919       0.000
   0.11045894 -0.12905117  0.11175709       0.000
   0.11511670 -0.12439340  0.10772499       0.000
   0.11977447 -0.11973563  0.10369288       0.000
   0.11977447 -0.11973563  0.10369288       0.000
   0.11578199 -0.11574444  0.10023645       0.000
   0.11178950 -0.11175326  0.09678002       0.000
   0.10779702 -0.10776207  0.09332359       0.000
   0.10380454 -0.10377088  0.08986717       0.000
   0.09981206 -0.09977969  0.08641074       0.000
   0.09581957 -0.09578851  0.08295431       0.000
   0.09182709 -0.09179732  0.07949788       0.000
   0.08783461 -0.08780613  0.07604145       0.000
   0.08384213 -0.08381494  0.07258502       0.000
   0.07984965 -0.07982376  0.06912859       0.000
   0.07585716 -0.07583257  0.06567216       0.000
   0.07186468 -0.07184138  0.06221573       0.000
   0.06787220 -0.06785019  0.05875930       0.000
   0.06387972 -0.06385900  0.05530287       0.000
   0.05988723 -0.05986782  0.05184644       0.000
   0.05589475 -0.05587663  0.04839001       0.000
   0.05190227 -0.05188544  0.04493358       0.000
   0.04790979 -0.04789425  0.04147715       0.000
   0.04391731 -0.04390307  0.03802072       0.000
   0.03992482 -0.03991188  0.03456429       0.000
   0.03593234 -0.03592069  0.03110786       0.000
   0.03193986 -0.03192950  0.02765144       0.000
   0.02794738 -0.02793831  0.02419501       0.000
   0.02395489 -0.02394713  0.02073858       0.000
   0.01996241 -0.01995594  0.01728215       0.000
   0.01596993 -0.01596475  0.01382572       0.000
   0.01197745 -0.01197356  0.01036929       0.000
   0.00798496 -0.00798238  0.00691286       0.000
   0.00399248 -0.00399119  0.00345643       0.000
   0.00000000  0.00000000  0.00000000       0.000
   0.00000000  0.00000000  0.00000000       0.000
  -0.00399098 -0.00399098  0.00345489       0.000
  -0.00798197 -0.00798197  0.00690977       0.000
  -0.01197295 -0.01197295  0.01036466       0.000
  -0.01596393 -0.01596393  0.01381954       0.000
  -0.01995491 -0.01995491  0.01727443       0.000
  -0.02394590 -0.02394590  0.02072932       0.000
  -0.02793688 -0.02793688  0.02418420       0.000
  -0.03192786 -0.03192786  0.02763909       0.000
  -0.03591884 -0.03591884  0.03109397       0.000
  -0.03990983 -0.03990983  0.03454886       0.000
  -0.04390081 -0.04390081  0.03800375       0.000
  -0.04789179 -0.04789179  0.04145863       0.000
  -0.05188277 -0.05188277  0.04491352       0.000
  -0.05587376 -0.05587376  0.04836840       0.000
  -0.05986474 -0.05986474  0.05182329       0.000
  -0.06385572 -0.06385572  0.05527817       0.000
  -0.06784671 -0.06784671  0.05873306       0.000
  -0.07183769 -0.07183769  0.06218795       0.000
  -0.07582867 -0.07582867  0.06564283       0.000
  -0.07981965 -0.07981965  0.06909772       0.000
  -0.08381064 -0.08381064  0.07255260       0.000
  -0.08780162 -0.08780162  0.07600749       0.000
  -0.09179260 -0.09179260  0.07946238       0.000
  -0.09578358 -0.09578358  0.08291726       0.000
  -0.09977457 -0.09977457  0.08637215       0.000
  -0.10376555 -0.10376555  0.08982703       0.000
  -0.10775653 -0.10775653  0.09328192       0.000
  -0.11174751 -0.11174751  0.09673681       0.000
  -0.11573850 -0.11573850  0.10019169       0.000
  -0.11972948 -0.11972948  0.10364658       0.000
   0.00003220 -0.11972285  0.15551617       0.000
   0.00003109 -0.11559447  0.15015355       0.000
   0.00002998 -0.11146610  0.14479092       0.000
   0.00002887 -0.10733773  0.13942829       0.000
   0.00002776 -0.10320935  0.13406567       0.000
   0.00002665 -0.09908098  0.12870304       0.000
   0.00002554 -0.09495260  0.12334041       0.000
   0.00002443 -0.09082423  0.11797779       0.000
   0.00002332 -0.08669585  0.11261516       0.000
   0.00002221 -0.08256748  0.10725253       0.000
   0.00002110 -0.07843911  0.10188991       0.000
   0.00001999 -0.07431073  0.09652728       0.000
   0.00001888 -0.07018236  0.09116465       0.000
   0.00001777 -0.06605398  0.08580203       0.000
   0.00001666 -0.06192561  0.08043940       0.000
   0.00001555 -0.05779724  0.07507677       0.000
   0.00001444 -0.05366886  0.06971415       0.000
   0.00001333 -0.04954049  0.06435152       0.000
   0.00001221 -0.04541211  0.05898889       0.000
   0.00001110 -0.04128374  0.05362627       0.000
   0.00000999 -0.03715537  0.04826364       0.000
   0.00000888 -0.03302699  0.04290101       0.000
   0.00000777 -0.02889862  0.03753839       0.000
   0.00000666 -0.02477024  0.03217576       0.000
   0.00000555 -0.02064187  0.02681313       0.000
   0.00000444 -0.01651350  0.02145051       0.000
   0.00000333 -0.01238512  0.01608788       0.000
   0.00000222 -0.00825675  0.01072525       0.000
   0.00000111 -0.00412837  0.00536263       0.000
   0.00000000  0.00000000  0.00000000       0.000
   0.00000000  0.00000000  0.00000000       0.000
   0.00000067 -0.00630222  0.00272754       0.000
   0.00000135 -0.01260445  0.00545508       0.000
   0.00000202 -0.01890667  0.00818262       0.000
   0.00000269 -0.02520890  0.01091017       0.000
   0.00000336 -0.03151112  0.01363771       0.000
   0.00000404 -0.03781335  0.01636525       0.000
   0.00000471 -0.04411557  0.01909279       0.000
   0.00000538 -0.05041780  0.02182033       0.000
   0.00000606 -0.05672002  0.02454787       0.000
   0.00000673 -0.06302224  0.02727542       0.000
   0.00000740 -0.06932447  0.03000296       0.000
   0.00000807 -0.07562669  0.03273050       0.000
   0.00000875 -0.08192892  0.03545804       0.000
   0.00000942 -0.08823114  0.03818558       0.000
   0.00001009 -0.09453337  0.04091312       0.000
   0.00001077 -0.10083559  0.04364066       0.000
   0.00001144 -0.10713782  0.04636821       0.000
   0.00001211 -0.11344004  0.04909575       0.000
   0.00001279 -0.11974227  0.05182329       0.000
 
 k-points in reciprocal lattice and weights: 0.040   7   7   5   72  0.040  158    7 
   0.00000000  0.00000000  0.00000000       0.004
   0.14285714  0.00000000  0.00000000       0.016
   0.28571429  0.00000000  0.00000000       0.016
   0.42857143  0.00000000  0.00000000       0.016
   0.14285714  0.14285714  0.00000000       0.008
   0.28571429  0.14285714  0.00000000       0.016
   0.42857143  0.14285714  0.00000000       0.016
  -0.42857143  0.14285714  0.00000000       0.016
  -0.28571429  0.14285714  0.00000000       0.016
  -0.14285714  0.14285714  0.00000000       0.008
   0.28571429  0.28571429  0.00000000       0.008
   0.42857143  0.28571429  0.00000000       0.016
  -0.42857143  0.28571429  0.00000000       0.016
  -0.28571429  0.28571429  0.00000000       0.008
   0.42857143  0.42857143  0.00000000       0.008
  -0.42857143  0.42857143  0.00000000       0.008
   0.00000000  0.00000000  0.20000000       0.008
   0.14285714  0.00000000  0.20000000       0.016
   0.28571429  0.00000000  0.20000000       0.016
   0.42857143  0.00000000  0.20000000       0.016
  -0.42857143  0.00000000  0.20000000       0.016
  -0.28571429  0.00000000  0.20000000       0.016
  -0.14285714  0.00000000  0.20000000       0.016
   0.14285714  0.14285714  0.20000000       0.008
   0.28571429  0.14285714  0.20000000       0.016
   0.42857143  0.14285714  0.20000000       0.016
  -0.42857143  0.14285714  0.20000000       0.016
  -0.28571429  0.14285714  0.20000000       0.016
  -0.14285714  0.14285714  0.20000000       0.016
   0.28571429  0.28571429  0.20000000       0.008
   0.42857143  0.28571429  0.20000000       0.016
  -0.42857143  0.28571429  0.20000000       0.016
  -0.28571429  0.28571429  0.20000000       0.016
  -0.14285714  0.28571429  0.20000000       0.016
   0.42857143  0.42857143  0.20000000       0.008
  -0.42857143  0.42857143  0.20000000       0.016
  -0.28571429  0.42857143  0.20000000       0.016
  -0.14285714  0.42857143  0.20000000       0.016
  -0.42857143 -0.42857143  0.20000000       0.008
  -0.28571429 -0.42857143  0.20000000       0.016
  -0.14285714 -0.42857143  0.20000000       0.016
  -0.28571429 -0.28571429  0.20000000       0.008
  -0.14285714 -0.28571429  0.20000000       0.016
  -0.14285714 -0.14285714  0.20000000       0.008
   0.00000000  0.00000000  0.40000000       0.008
   0.14285714  0.00000000  0.40000000       0.016
   0.28571429  0.00000000  0.40000000       0.016
   0.42857143  0.00000000  0.40000000       0.016
  -0.42857143  0.00000000  0.40000000       0.016
  -0.28571429  0.00000000  0.40000000       0.016
  -0.14285714  0.00000000  0.40000000       0.016
   0.14285714  0.14285714  0.40000000       0.008
   0.28571429  0.14285714  0.40000000       0.016
   0.42857143  0.14285714  0.40000000       0.016
  -0.42857143  0.14285714  0.40000000       0.016
  -0.28571429  0.14285714  0.40000000       0.016
  -0.14285714  0.14285714  0.40000000       0.016
   0.28571429  0.28571429  0.40000000       0.008
   0.42857143  0.28571429  0.40000000       0.016
  -0.42857143  0.28571429  0.40000000       0.016
  -0.28571429  0.28571429  0.40000000       0.016
  -0.14285714  0.28571429  0.40000000       0.016
   0.42857143  0.42857143  0.40000000       0.008
  -0.42857143  0.42857143  0.40000000       0.016
  -0.28571429  0.42857143  0.40000000       0.016
  -0.14285714  0.42857143  0.40000000       0.016
  -0.42857143 -0.42857143  0.40000000       0.008
  -0.28571429 -0.42857143  0.40000000       0.016
  -0.14285714 -0.42857143  0.40000000       0.016
  -0.28571429 -0.28571429  0.40000000       0.008
  -0.14285714 -0.28571429  0.40000000       0.016
  -0.14285714 -0.14285714  0.40000000       0.008
   0.00000000  0.00000000  0.00000000       0.000
   0.00000000  0.00000000  0.03333333       0.000
   0.00000000  0.00000000  0.06666667       0.000
   0.00000000  0.00000000  0.10000000       0.000
   0.00000000  0.00000000  0.13333333       0.000
   0.00000000  0.00000000  0.16666667       0.000
   0.00000000  0.00000000  0.20000000       0.000
   0.00000000  0.00000000  0.23333333       0.000
   0.00000000  0.00000000  0.26666667       0.000
   0.00000000  0.00000000  0.30000000       0.000
   0.00000000  0.00000000  0.33333333       0.000
   0.00000000  0.00000000  0.36666667       0.000
   0.00000000  0.00000000  0.40000000       0.000
   0.00000000  0.00000000  0.43333333       0.000
   0.00000000  0.00000000  0.46666667       0.000
   0.00000000  0.00000000  0.50000000       0.000
   0.00000000  0.00000000  0.50000000       0.000
   0.01742240  0.01742240  0.50000000       0.000
   0.03484479  0.03484479  0.50000000       0.000
   0.05226719  0.05226719  0.50000000       0.000
   0.06968959  0.06968959  0.50000000       0.000
   0.08711199  0.08711199  0.50000000       0.000
   0.10453438  0.10453438  0.50000000       0.000
   0.12195678  0.12195678  0.50000000       0.000
   0.13937918  0.13937918  0.50000000       0.000
   0.15680158  0.15680158  0.50000000       0.000
   0.17422397  0.17422397  0.50000000       0.000
   0.19164637  0.19164637  0.50000000       0.000
   0.20906877  0.20906877  0.50000000       0.000
   0.22649116  0.22649116  0.50000000       0.000
   0.24391356  0.24391356  0.50000000       0.000
   0.26133596  0.26133596  0.50000000       0.000
   0.27875836  0.27875836  0.50000000       0.000
   0.29618075  0.29618075  0.50000000       0.000
   0.31360315  0.31360315  0.50000000       0.000
   0.33102555  0.33102555  0.50000000       0.000
   0.34844795  0.34844795  0.50000000       0.000
   0.36587034  0.36587034  0.50000000       0.000
   0.38329274  0.38329274  0.50000000       0.000
  -0.38329274  0.61670726  0.50000000       0.000
  -0.40274395  0.59725605  0.50000000       0.000
  -0.42219516  0.57780484  0.50000000       0.000
  -0.44164637  0.55835363  0.50000000       0.000
  -0.46109758  0.53890242  0.50000000       0.000
  -0.48054879  0.51945121  0.50000000       0.000
  -0.50000000  0.50000000  0.50000000       0.000
  -0.50000000  0.50000000  0.50000000       0.000
  -0.48333333  0.48333333  0.48333333       0.000
  -0.46666667  0.46666667  0.46666667       0.000
  -0.45000000  0.45000000  0.45000000       0.000
  -0.43333333  0.43333333  0.43333333       0.000
  -0.41666667  0.41666667  0.41666667       0.000
  -0.40000000  0.40000000  0.40000000       0.000
  -0.38333333  0.38333333  0.38333333       0.000
  -0.36666667  0.36666667  0.36666667       0.000
  -0.35000000  0.35000000  0.35000000       0.000
  -0.33333333  0.33333333  0.33333333       0.000
  -0.31666667  0.31666667  0.31666667       0.000
  -0.30000000  0.30000000  0.30000000       0.000
  -0.28333333  0.28333333  0.28333333       0.000
  -0.26666667  0.26666667  0.26666667       0.000
  -0.25000000  0.25000000  0.25000000       0.000
  -0.23333333  0.23333333  0.23333333       0.000
  -0.21666667  0.21666667  0.21666667       0.000
  -0.20000000  0.20000000  0.20000000       0.000
  -0.18333333  0.18333333  0.18333333       0.000
  -0.16666667  0.16666667  0.16666667       0.000
  -0.15000000  0.15000000  0.15000000       0.000
  -0.13333333  0.13333333  0.13333333       0.000
  -0.11666667  0.11666667  0.11666667       0.000
  -0.10000000  0.10000000  0.10000000       0.000
  -0.08333333  0.08333333  0.08333333       0.000
  -0.06666667  0.06666667  0.06666667       0.000
  -0.05000000  0.05000000  0.05000000       0.000
  -0.03333333  0.03333333  0.03333333       0.000
  -0.01666667  0.01666667  0.01666667       0.000
   0.00000000  0.00000000  0.00000000       0.000
   0.00000000  0.00000000  0.00000000       0.000
   0.01666667  0.01666667  0.00000000       0.000
   0.03333333  0.03333333  0.00000000       0.000
   0.05000000  0.05000000  0.00000000       0.000
   0.06666667  0.06666667  0.00000000       0.000
   0.08333333  0.08333333  0.00000000       0.000
   0.10000000  0.10000000  0.00000000       0.000
   0.11666667  0.11666667  0.00000000       0.000
   0.13333333  0.13333333  0.00000000       0.000
   0.15000000  0.15000000  0.00000000       0.000
   0.16666667  0.16666667  0.00000000       0.000
   0.18333333  0.18333333  0.00000000       0.000
   0.20000000  0.20000000  0.00000000       0.000
   0.21666667  0.21666667  0.00000000       0.000
   0.23333333  0.23333333  0.00000000       0.000
   0.25000000  0.25000000  0.00000000       0.000
   0.26666667  0.26666667  0.00000000       0.000
   0.28333333  0.28333333  0.00000000       0.000
   0.30000000  0.30000000  0.00000000       0.000
   0.31666667  0.31666667  0.00000000       0.000
   0.33333333  0.33333333  0.00000000       0.000
   0.35000000  0.35000000  0.00000000       0.000
   0.36666667  0.36666667  0.00000000       0.000
   0.38333333  0.38333333  0.00000000       0.000
   0.40000000  0.40000000  0.00000000       0.000
   0.41666667  0.41666667  0.00000000       0.000
   0.43333333  0.43333333  0.00000000       0.000
   0.45000000  0.45000000  0.00000000       0.000
   0.46666667  0.46666667  0.00000000       0.000
   0.48333333  0.48333333  0.00000000       0.000
   0.50000000  0.50000000  0.00000000       0.000
   0.00000000  0.50000000  0.50000000       0.000
   0.00000000  0.48275862  0.48275862       0.000
   0.00000000  0.46551724  0.46551724       0.000
   0.00000000  0.44827586  0.44827586       0.000
   0.00000000  0.43103448  0.43103448       0.000
   0.00000000  0.41379310  0.41379310       0.000
   0.00000000  0.39655172  0.39655172       0.000
   0.00000000  0.37931034  0.37931034       0.000
   0.00000000  0.36206897  0.36206897       0.000
   0.00000000  0.34482759  0.34482759       0.000
   0.00000000  0.32758621  0.32758621       0.000
   0.00000000  0.31034483  0.31034483       0.000
   0.00000000  0.29310345  0.29310345       0.000
   0.00000000  0.27586207  0.27586207       0.000
   0.00000000  0.25862069  0.25862069       0.000
   0.00000000  0.24137931  0.24137931       0.000
   0.00000000  0.22413793  0.22413793       0.000
   0.00000000  0.20689655  0.20689655       0.000
   0.00000000  0.18965517  0.18965517       0.000
   0.00000000  0.17241379  0.17241379       0.000
   0.00000000  0.15517241  0.15517241       0.000
   0.00000000  0.13793103  0.13793103       0.000
   0.00000000  0.12068966  0.12068966       0.000
   0.00000000  0.10344828  0.10344828       0.000
   0.00000000  0.08620690  0.08620690       0.000
   0.00000000  0.06896552  0.06896552       0.000
   0.00000000  0.05172414  0.05172414       0.000
   0.00000000  0.03448276  0.03448276       0.000
[...]
     21      13.6608      0.00000
     22      14.2293      0.00000
     23      15.0950      0.00000
     24      16.0608      0.00000

 k-point   225 :       0.0000    0.3684    0.0000
  band No.  band energies     occupation 
      1     -25.1559      1.00000
      2      -8.3346      1.00000
      3      -8.0760      1.00000
      4      -7.7441      1.00000
      5      -1.8300      1.00000
      6       0.4433      1.00000
      7       3.0094      1.00000
      8       4.8508      1.00000
      9       4.8677      1.00000
     10       5.6032      1.00000
     11       5.6901      1.00000
     12       6.4551      1.00000
     13       6.7581      1.00000
     14       7.1869      1.00000
     15       8.2412      1.00000
     16       8.9410      1.00000
     17       9.0566      1.00000
     18      11.5738      0.00000
     19      11.9096      0.00000
     20      12.9721      0.00000
     21      13.6707      0.00000
     22      14.4479      0.00000
     23      15.0669      0.00000
     24      16.1378      0.00000

 k-point   226 :       0.0000    0.3947    0.0000
  band No.  band energies     occupation 
      1     -25.1549      1.00000
      2      -8.3639      1.00000
      3      -8.0763      1.00000
      4      -7.7410      1.00000
      5      -1.6758      1.00000
      6       0.2692      1.00000
      7       3.0622      1.00000
      8       4.7553      1.00000
      9       4.9295      1.00000
     10       5.5439      1.00000
     11       5.7476      1.00000
     12       6.4336      1.00000
     13       6.6801      1.00000
     14       7.1258      1.00000
     15       8.3466      1.00000
     16       8.9966      1.00000
     17       9.1621      1.00000
     18      11.5098      0.00000
     19      11.6909      0.00000
     20      12.8457      0.00000
     21      13.7246      0.00000
     22      14.6808      0.00000
     23      15.0739      0.00000
     24      16.2776      0.00000

 k-point   227 :       0.0000    0.4211    0.0000
  band No.  band energies     occupation 
      1     -25.1536      1.00000
      2      -8.3874      1.00000
      3      -8.0766      1.00000
      4      -7.7385      1.00000
      5      -1.5339      1.00000
      6       0.1141      1.00000
      7       3.1117      1.00000
      8       4.6635      1.00000
      9       4.9936      1.00000
     10       5.4811      1.00000
     11       5.8081      1.00000
     12       6.4050      1.00000
     13       6.6203      1.00000
     14       7.0755      1.00000
     15       8.4149      1.00000
     16       9.0819      1.00000
     17       9.2682      1.00000
     18      11.4168      0.00000
     19      11.4992      0.00000
     20      12.7337      0.00000
     21      13.8007      0.00000
     22      14.8494      0.00000
     23      15.0573      0.00000
     24      16.3635      0.00000

 k-point   228 :       0.0000    0.4474    0.0000
  band No.  band energies     occupation 
      1     -25.1526      1.00000
      2      -8.4045      1.00000
      3      -8.0767      1.00000
      4      -7.7367      1.00000
      5      -1.4140      1.00000
      6      -0.0139      1.00000
      7       3.1533      1.00000
      8       4.5864      1.00000
      9       5.0568      1.00000
     10       5.4182      1.00000
     11       5.8637      1.00000
     12       6.3701      1.00000
     13       6.5824      1.00000
     14       7.0383      1.00000
     15       8.4507      1.00000
     16       9.1806      1.00000
     17       9.3619      1.00000
     18      11.3139      0.00000
     19      11.3457      0.00000
     20      12.6556      0.00000
     21      13.8819      0.00000
     22      14.9509      0.00000
     23      15.0165      0.00000
     24      16.6478      0.00000

 k-point   229 :       0.0000    0.4737    0.0000
  band No.  band energies     occupation 
      1     -25.1520      1.00000
      2      -8.4150      1.00000
      3      -8.0767      1.00000
      4      -7.7356      1.00000
      5      -1.3304      1.00000
      6      -0.1018      1.00000
      7       3.1816      1.00000
      8       4.5349      1.00000
      9       5.1118      1.00000
     10       5.3632      1.00000
     11       5.9053      1.00000
     12       6.3390      1.00000
     13       6.5621      1.00000
     14       7.0157      1.00000
     15       8.4661      1.00000
     16       9.2584      1.00000
     17       9.4282      1.00000
     18      11.2314      0.00000
     19      11.2445      0.00000
     20      12.6122      0.00000
     21      13.9400      0.00000
     22      14.9742      0.00000
     23      15.0446      0.00000
     24      16.7356      0.00000

 k-point   230 :       0.0000    0.5000    0.0000
  band No.  band energies     occupation 
      1     -25.1518      1.00000
      2      -8.4185      1.00000
      3      -8.0768      1.00000
      4      -7.7353      1.00000
      5      -1.2998      1.00000
      6      -0.1337      1.00000
      7       3.1916      1.00000
      8       4.5168      1.00000
      9       5.1372      1.00000
     10       5.3377      1.00000
     11       5.9209      1.00000
     12       6.3261      1.00000
     13       6.5559      1.00000
     14       7.0081      1.00000
     15       8.4703      1.00000
     16       9.2887      1.00000
     17       9.4523      1.00000
     18      11.1992      0.00000
     19      11.2091      0.00000
     20      12.5982      0.00000
     21      13.9593      0.00000
     22      14.9695      0.00000
     23      15.0452      0.00000
     24      16.8664      0.00000


--------------------------------------------------------------------------------------------------------


 soft charge-density along one line, spin component           1
         0         1         2         3         4         5         6         7         8         9
 total charge-density along one line
 
 soft charge-density along one line, spin component           2
         0         1         2         3         4         5         6         7         8         9
 total charge-density along one line
 
 pseudopotential strength for first ion, spin component:           1
  1.185  -0.001  -0.002  -0.001  -0.000   0.389  -0.001  -0.002
 -0.001   1.303  -0.001  -0.002   0.000  -0.001   0.506  -0.001
 -0.002  -0.001   1.379  -0.001   0.000  -0.002  -0.001   0.582
 -0.001  -0.002  -0.001   1.303  -0.000  -0.001  -0.002  -0.001
 -0.000   0.000   0.000  -0.000   1.444  -0.000   0.000   0.000
  0.389  -0.001  -0.002  -0.001  -0.000  -0.357  -0.001  -0.002
 -0.001   0.506  -0.001  -0.002   0.000  -0.001  -0.240  -0.001
 -0.002  -0.001   0.582  -0.001   0.000  -0.002  -0.001  -0.164
 -0.001  -0.002  -0.001   0.506  -0.000  -0.001  -0.002  -0.001
 -0.000   0.000   0.000  -0.000   0.652  -0.000  -0.000   0.000
  0.000   0.000  -0.011   0.000   0.000   0.000   0.000  -0.010
  0.000   0.000  -0.019   0.000   0.000   0.000   0.000  -0.018
 -0.000   0.009   0.000   0.000   0.000  -0.000   0.009   0.000
  0.000  -0.000   0.007  -0.000  -0.000   0.000  -0.000   0.007
 -0.000   0.000   0.000   0.009  -0.000  -0.000   0.000   0.000
 -0.000   0.009   0.000   0.000   0.000  -0.000   0.009   0.000
  0.000  -0.000   0.010  -0.000  -0.000   0.000  -0.000   0.009
 -0.000   0.000   0.000   0.009  -0.000  -0.000   0.000   0.000
 pseudopotential strength for first ion, spin component:           2
  1.234  -0.002  -0.002  -0.002  -0.000   0.437  -0.002  -0.002
 -0.002   1.370  -0.001  -0.002  -0.006  -0.002   0.571  -0.001
 -0.002  -0.001   1.426  -0.001  -0.000  -0.002  -0.001   0.627
 -0.002  -0.002  -0.001   1.370   0.006  -0.002  -0.002  -0.001
 -0.000  -0.006  -0.000   0.006   1.671  -0.000  -0.006  -0.000
  0.437  -0.002  -0.002  -0.002  -0.000  -0.310  -0.002  -0.002
 -0.002   0.571  -0.001  -0.002  -0.006  -0.002  -0.176  -0.001
 -0.002  -0.001   0.627  -0.001  -0.000  -0.002  -0.001  -0.120
 -0.002  -0.002  -0.001   0.571   0.006  -0.002  -0.002  -0.001
 -0.000  -0.006  -0.000   0.006   0.877  -0.000  -0.006  -0.000
  0.000   0.000  -0.007   0.000  -0.000   0.000   0.000  -0.007
  0.000   0.000  -0.013   0.000  -0.000   0.000   0.000  -0.013
 -0.000   0.009   0.000   0.000   0.000  -0.000   0.009   0.000
  0.000  -0.000   0.007  -0.000  -0.000   0.000  -0.000   0.007
 -0.000   0.000   0.000   0.009  -0.000  -0.000   0.000   0.000
 -0.000   0.009   0.000   0.000   0.000  -0.000   0.009   0.000
  0.000  -0.000   0.010  -0.000  -0.000   0.000  -0.000   0.009
 -0.000   0.000   0.000   0.009  -0.000  -0.000   0.000   0.000
 total augmentation occupancy for first ion, spin component:           1
  1.600   0.000   0.000   0.000   0.000   0.000   0.000   0.000   0.000   0.000   0.000   0.000   0.000   0.000   0.000   0.000
  0.000   1.600   0.000   0.000   0.000   0.000   0.000   0.000   0.000   0.000   0.000   0.000   0.000   0.000   0.000   0.000
  0.000   0.000   1.600   0.000   0.000   0.000   0.000   0.000   0.000   0.000   0.000   0.000   0.000   0.000   0.000   0.000
  0.000   0.000   0.000   1.600   0.000   0.000   0.000   0.000   0.000   0.000   0.000   0.000   0.000   0.000   0.000   0.000
  0.000   0.000   0.000   0.000   1.600   0.000   0.000   0.000   0.000   0.000   0.000   0.000   0.000   0.000   0.000   0.000
  0.000   0.000   0.000   0.000   0.000   0.000   0.000   0.000   0.000   0.000   0.000   0.000   0.000   0.000   0.000   0.000
  0.000   0.000   0.000   0.000   0.000   0.000   0.000   0.000   0.000   0.000   0.000   0.000   0.000   0.000   0.000   0.000
  0.000   0.000   0.000   0.000   0.000   0.000   0.000   0.000   0.000   0.000   0.000   0.000   0.000   0.000   0.000   0.000
  0.000   0.000   0.000   0.000   0.000   0.000   0.000   0.000   0.000   0.000   0.000   0.000   0.000   0.000   0.000   0.000
  0.000   0.000   0.000   0.000   0.000   0.000   0.000   0.000   0.000   0.000   0.000   0.000   0.000   0.000   0.000   0.000
  0.000   0.000   0.000   0.000   0.000   0.000   0.000   0.000   0.000   0.000   1.000   0.000   0.000   0.000   0.000   0.000
  0.000   0.000   0.000   0.000   0.000   0.000   0.000   0.000   0.000   0.000   0.000   0.000   0.000   0.000   0.000   0.000
  0.000   0.000   0.000   0.000   0.000   0.000   0.000   0.000   0.000   0.000   0.000   0.000   0.000   0.000   0.000   0.000
  0.000   0.000   0.000   0.000   0.000   0.000   0.000   0.000   0.000   0.000   0.000   0.000   0.000   0.000   0.000   0.000
  0.000   0.000   0.000   0.000   0.000   0.000   0.000   0.000   0.000   0.000   0.000   0.000   0.000   0.000   0.000   0.000
  0.000   0.000   0.000   0.000   0.000   0.000   0.000   0.000   0.000   0.000   0.000   0.000   0.000   0.000   0.000   0.000
  0.000   0.000   0.000   0.000   0.000   0.000   0.000   0.000   0.000   0.000   0.000   0.000   0.000   0.000   0.000   0.000
  0.000   0.000   0.000   0.000   0.000   0.000   0.000   0.000   0.000   0.000   0.000   0.000   0.000   0.000   0.000   0.000
 total augmentation occupancy for first ion, spin component:           2
  0.178   0.000   0.000   0.000   0.000   0.000   0.000   0.000   0.000   0.000   0.000   0.000   0.000   0.000   0.000   0.000
  0.000   0.178   0.000   0.000   0.000   0.000   0.000   0.000   0.000   0.000   0.000   0.000   0.000   0.000   0.000   0.000
  0.000   0.000   0.178   0.000   0.000   0.000   0.000   0.000   0.000   0.000   0.000   0.000   0.000   0.000   0.000   0.000
  0.000   0.000   0.000   0.178   0.000   0.000   0.000   0.000   0.000   0.000   0.000   0.000   0.000   0.000   0.000   0.000
  0.000   0.000   0.000   0.000   0.178   0.000   0.000   0.000   0.000   0.000   0.000   0.000   0.000   0.000   0.000   0.000
  0.000   0.000   0.000   0.000   0.000   0.000   0.000   0.000   0.000   0.000   0.000   0.000   0.000   0.000   0.000   0.000
  0.000   0.000   0.000   0.000   0.000   0.000   0.000   0.000   0.000   0.000   0.000   0.000   0.000   0.000   0.000   0.000
  0.000   0.000   0.000   0.000   0.000   0.000   0.000   0.000   0.000   0.000   0.000   0.000   0.000   0.000   0.000   0.000
  0.000   0.000   0.000   0.000   0.000   0.000   0.000   0.000   0.000   0.000   0.000   0.000   0.000   0.000   0.000   0.000
  0.000   0.000   0.000   0.000   0.000   0.000   0.000   0.000   0.000   0.000   0.000   0.000   0.000   0.000   0.000   0.000
  0.000   0.000   0.000   0.000   0.000   0.000   0.000   0.000   0.000   0.000   0.111   0.000   0.000   0.000   0.000   0.000
  0.000   0.000   0.000   0.000   0.000   0.000   0.000   0.000   0.000   0.000   0.000   0.000   0.000   0.000   0.000   0.000
  0.000   0.000   0.000   0.000   0.000   0.000   0.000   0.000   0.000   0.000   0.000   0.000   0.000   0.000   0.000   0.000
  0.000   0.000   0.000   0.000   0.000   0.000   0.000   0.000   0.000   0.000   0.000   0.000   0.000   0.000   0.000   0.000
  0.000   0.000   0.000   0.000   0.000   0.000   0.000   0.000   0.000   0.000   0.000   0.000   0.000   0.000   0.000   0.000
  0.000   0.000   0.000   0.000   0.000   0.000   0.000   0.000   0.000   0.000   0.000   0.000   0.000   0.000   0.000   0.000
  0.000   0.000   0.000   0.000   0.000   0.000   0.000   0.000   0.000   0.000   0.000   0.000   0.000   0.000   0.000   0.000
  0.000   0.000   0.000   0.000   0.000   0.000   0.000   0.000   0.000   0.000   0.000   0.000   0.000   0.000   0.000   0.000


------------------------ aborting loop because EDIFF is reached ----------------------------------------


 


 total charge     
 
# of ion       s       p       d       f       tot
--------------------------------------------------
    1        0.458   0.594   8.281   0.000   9.333
    2        2.022   5.649   0.751   0.053   8.475
    3        0.766   0.804   0.000   0.000   1.571
    4        0.802   0.799   0.000   0.000   1.601
    5        0.800   0.824   0.000   0.000   1.624
--------------------------------------------------
tot          4.848   8.670   9.033   0.053  22.604

 


 magnetization (x)
 
# of ion       s       p       d       f       tot
--------------------------------------------------
    1       -0.000  -0.000   0.053   0.000   0.053
    2       -0.000   0.000   0.000   0.000   0.001
    3        0.001  -0.003   0.000   0.000  -0.002
    4        0.002  -0.004   0.000   0.000  -0.002
    5       -0.000   0.006   0.000   0.000   0.005
--------------------------------------------------
tot          0.003  -0.001   0.054   0.000   0.055

 
    CHARGE:  cpu time    0.0542: real time    0.6403
    FORLOC:  cpu time    0.0006: real time    0.0006
    FORHF :  cpu time 1351.7077: real time 1351.8661
    FORNL :  cpu time    0.4823: real time    0.4869
    FORCOR:  cpu time    0.2666: real time    0.2690
    FORHAR:  cpu time    0.0021: real time    0.0022
    OFIELD:  cpu time    0.0001: real time    0.0001

 VOLUME and BASIS-vectors are now :
 -----------------------------------------------------------------------------
  energy-cutoff  :      520.00
  volume of cell :       84.06
      direct lattice vectors                 reciprocal lattice vectors
    -4.175296664 -0.000107409  0.000781902    -0.239484530  0.000025570  0.103646578
    -0.000107409 -4.175296664  0.000781902     0.000025570 -0.239484530  0.103646578
     2.086769744  2.086769744  4.821150135     0.000038836  0.000038836  0.207385767

  length of vectors
     4.175296739  4.175296739  5.652672338     0.260951057  0.260951057  0.207385774


 FORCES acting on ions
    electron-ion (+dipol)            ewald-force                    non-local-force                 convergence-correction
 -----------------------------------------------------------------------------------------------
   0.336E-01 0.336E-01 0.115E+02   -.331E-01 -.331E-01 -.131E+02   0.873E-02 0.873E-02 0.863E+00   -.576E-02 -.576E-02 0.508E+00
   -.224E-01 -.224E-01 0.142E+02   0.567E-02 0.567E-02 -.110E+02   0.300E-02 0.300E-02 -.388E-01   0.873E-02 0.873E-02 -.298E+01
   0.621E-01 0.256E-01 -.396E+02   -.745E-01 -.336E-01 0.334E+02   -.105E-01 0.187E-01 0.261E+01   0.148E-01 -.759E-02 0.314E+01
   0.256E-01 0.621E-01 -.396E+02   -.336E-01 -.745E-01 0.334E+02   0.187E-01 -.105E-01 0.261E+01   -.759E-02 0.148E-01 0.314E+01
   -.183E+00 -.183E+00 0.500E+02   0.136E+00 0.136E+00 -.427E+02   0.587E-01 0.587E-01 -.402E+01   -.745E-02 -.745E-02 -.289E+01
 -----------------------------------------------------------------------------------------------
   -.841E-01 -.841E-01 -.360E+01   -.105E-14 -.119E-14 -.142E-13   0.787E-01 0.787E-01 0.202E+01   0.272E-02 0.272E-02 0.921E+00
 
 
 POSITION                                       TOTAL-FORCE (eV/Angst)
 -----------------------------------------------------------------------------------
     -2.08872     -2.08872      1.57871         0.004473      0.004473      0.105212
     -0.00194     -0.00194      0.05145        -0.004725     -0.004725      0.357242
     -2.08649     -0.00042      2.50191        -0.008885      0.003628     -0.316967
     -0.00042     -2.08649      2.50191         0.003628     -0.008885     -0.316967
     -0.00410     -0.00410      4.11558         0.005509      0.005509      0.171479
 -----------------------------------------------------------------------------------
    total drift:                                0.001736      0.001736     -0.110038


--------------------------------------------------------------------------------------------------------



  FREE ENERGIE OF THE ION-ELECTRON SYSTEM (eV)
  ---------------------------------------------------
  free  energy   TOTEN  =       -31.60544440 eV

  energy  without entropy=      -31.60407680  energy(sigma->0) =      -31.60476060
 


--------------------------------------------------------------------------------------------------------


    POTLOK:  cpu time    0.2581: real time    0.2595


--------------------------------------------------------------------------------------------------------


 writing wavefunctions
     LOOP+:  cpu time56262.0872: real time56271.4151
    4ORBIT:  cpu time    0.0000: real time    0.0000
 


 total charge     
 
# of ion       s       p       d       f       tot
--------------------------------------------------
    1        0.458   0.594   8.281   0.000   9.333
    2        2.022   5.649   0.751   0.053   8.475
    3        0.766   0.804   0.000   0.000   1.571
    4        0.802   0.799   0.000   0.000   1.601
    5        0.800   0.824   0.000   0.000   1.624
--------------------------------------------------
tot          4.848   8.670   9.033   0.053  22.604

 


 magnetization (x)
 
# of ion       s       p       d       f       tot
--------------------------------------------------
    1       -0.000  -0.000   0.053   0.000   0.053
    2       -0.000   0.000   0.000   0.000   0.001
    3        0.001  -0.003   0.000   0.000  -0.002
    4        0.002  -0.004   0.000   0.000  -0.002
    5       -0.000   0.006   0.000   0.000   0.005
--------------------------------------------------
tot          0.003  -0.001   0.054   0.000   0.055

 

 total amount of memory used by VASP MPI-rank0    58145. kBytes
=======================================================================

   base      :      30000. kBytes
   nonlr-proj:       2505. kBytes
   fftplans  :       1106. kBytes
   grid      :        916. kBytes
   one-center:         98. kBytes
   HF        :        204. kBytes
   wavefun   :      23316. kBytes
 
  
  
 General timing and accounting informations for this job:
 ========================================================
  
                  Total CPU time used (sec):    56320.008
                            User time (sec):    56314.660
                          System time (sec):        5.348
                         Elapsed time (sec):    56330.959
  
                   Maximum memory used (kb):      286408.
                   Average memory used (kb):           0.
  
                          Minor page faults:      1541433
                          Major page faults:         4334
                 Voluntary context switches:         9322
