 vasp.5.4.1 24Jun15 (build Nov 23 2015 09:58:10) complex                        
  
 executed on             LinuxIFC date 2020.06.17  20:31:34
 running on   24 total cores
 distrk:  each k-point on   24 cores,    1 groups
 distr:  one band on NCORES_PER_BAND=   4 cores,    6 groups


--------------------------------------------------------------------------------------------------------


 INCAR:
 POTCAR:    PAW_PBE Te 08Apr2002                  
 POTCAR:    PAW_PBE Pb_d 06Sep2000                
 POTCAR:    PAW_PBE Te 08Apr2002                  
   VRHFIN =Te: s2p4                                                             
   LEXCH  = PE                                                                  
   EATOM  =   223.2721 eV,   16.4100 Ry                                         
                                                                                
   TITEL  = PAW_PBE Te 08Apr2002                                                
   LULTRA =        F    use ultrasoft PP ?                                      
   IUNSCR =        1    unscreen: 0-lin 1-nonlin 2-no                           
   RPACOR =    2.200    partial core radius                                     
   POMASS =  127.600; ZVAL   =    6.000    mass and valenz                      
   RCORE  =    2.300    outmost cutoff radius                                   
   RWIGS  =    2.900; RWIGS  =    1.535    wigner-seitz radius (au A)           
   ENMAX  =  174.982; ENMIN  =  131.236 eV                                      
   ICORE  =        3    local potential                                         
   LCOR   =        T    correct aug charges                                     
   LPAW   =        T    paw PP                                                  
   EAUG   =  368.792                                                            
   DEXC   =    0.000                                                            
   RMAX   =    2.345    core radius for proj-oper                               
   RAUG   =    1.300    factor for augmentation sphere                          
   RDEP   =    2.397    radius for radial grids                                 
   RDEPT  =    2.174    core radius for aug-charge                              
                                                                                
   Atomic configuration                                                         
   13 entries                                                                   
     n  l   j            E        occ.                                          
     1  0  0.50    -31621.2075   2.0000                                         
     2  0  0.50     -4848.7941   2.0000                                         
     2  1  1.50     -4352.1960   6.0000                                         
     3  0  0.50      -964.9612   2.0000                                         
     3  1  1.50      -803.6179   6.0000                                         
     3  2  2.50      -559.8710  10.0000                                         
     4  0  0.50      -164.3522   2.0000                                         
     4  1  1.50      -114.3756   6.0000                                         
     4  2  2.50       -41.6483  10.0000                                         
     5  0  0.50       -15.1072   2.0000                                         
     5  1  0.50        -5.9526   4.0000                                         
     5  2  1.50        -5.4423   0.0000                                         
     4  3  2.50        -5.4423   0.0000                                         
   Description                                                                  
     l       E           TYP  RCUT    TYP  RCUT                                 
     0    -15.1072389     23  2.300                                             
     0    -16.4678215     23  2.300                                             
     1     -5.9526306     23  2.300                                             
     1     -2.4873968     23  2.300                                             
     2     -5.4423304     23  2.300                                             
     3     -1.3605826     23  2.300                                             
  local pseudopotential read in
  partial core-charges read in
  partial kinetic energy density read in
  atomic valenz-charges read in
  non local Contribution for L=           0  read in
    real space projection operators read in
  non local Contribution for L=           0  read in
    real space projection operators read in
  non local Contribution for L=           1  read in
    real space projection operators read in
  non local Contribution for L=           1  read in
    real space projection operators read in
  non local Contribution for L=           2  read in
    real space projection operators read in
    PAW grid and wavefunctions read in
 
   number of l-projection  operators is LMAX  =           5
   number of lm-projection operators is LMMAX =          13
 
 POTCAR:    PAW_PBE Pb_d 06Sep2000                
   VRHFIN =Pb:                                                                  
   LEXCH  = PE                                                                  
   EATOM  =  1661.6185 eV,  122.1255 Ry                                         
                                                                                
   TITEL  = PAW_PBE Pb_d 06Sep2000                                              
   LULTRA =        F    use ultrasoft PP ?                                      
   IUNSCR =        1    unscreen: 0-lin 1-nonlin 2-no                           
   RPACOR =    2.200    partial core radius                                     
   POMASS =  207.200; ZVAL   =   14.000    mass and valenz                      
   RCORE  =    2.500    outmost cutoff radius                                   
   RWIGS  =    3.260; RWIGS  =    1.725    wigner-seitz radius (au A)           
   ENMAX  =  237.835; ENMIN  =  178.376 eV                                      
   ICORE  =        3    local potential                                         
   LCOR   =        T    correct aug charges                                     
   LPAW   =        T    paw PP                                                  
   EAUG   =  391.914                                                            
   DEXC   =    0.000                                                            
   RMAX   =    2.565    core radius for proj-oper                               
   RAUG   =    1.300    factor for augmentation sphere                          
   RDEP   =    2.643    radius for radial grids                                 
   RDEPT  =    2.092    core radius for aug-charge                              
                                                                                
   Atomic configuration                                                         
   16 entries                                                                   
     n  l   j            E        occ.                                          
     1  0  0.50    -88091.8466   2.0000                                         
     2  0  0.50    -15753.4197   2.0000                                         
     2  1  1.50    -13508.1797   6.0000                                         
     3  0  0.50     -3781.7194   2.0000                                         
     3  1  1.50     -3138.2529   6.0000                                         
     3  2  2.50     -2483.2977  10.0000                                         
     4  0  0.50      -856.2895   2.0000                                         
     4  1  1.50      -645.4942   6.0000                                         
     4  2  2.50      -401.8768  10.0000                                         
     4  3  3.50      -132.9059  14.0000                                         
     5  0  0.50      -144.0950   2.0000                                         
     5  1  1.50       -85.7879   6.0000                                         
     5  2  2.50       -21.1769  10.0000                                         
     6  0  0.50       -12.0372   2.0000                                         
     6  1  1.50        -3.4971   2.0000                                         
     5  3  2.50        -2.7212   0.0000                                         
   Description                                                                  
     l       E           TYP  RCUT    TYP  RCUT                                 
     2    -21.1768523     23  2.500                                             
     2      1.3605826     23  2.500                                             
     0    -12.0371562     23  2.500                                             
     0     13.6058260     23  2.500                                             
     1     -3.4971339     23  2.500                                             
     1     13.6058260     23  2.500                                             
     3     -1.3605826      7  2.500                                             
  local pseudopotential read in
  partial core-charges read in
  partial kinetic energy density read in
  atomic valenz-charges read in
  non local Contribution for L=           2  read in
    real space projection operators read in
  non local Contribution for L=           2  read in
    real space projection operators read in
  non local Contribution for L=           0  read in
    real space projection operators read in
  non local Contribution for L=           0  read in
    real space projection operators read in
  non local Contribution for L=           1  read in
    real space projection operators read in
  non local Contribution for L=           1  read in
    real space projection operators read in
    PAW grid and wavefunctions read in
 
   number of l-projection  operators is LMAX  =           6
   number of lm-projection operators is LMMAX =          18
 
  PAW_PBE Te 08Apr2002                  :
 energy of atom  1       EATOM= -223.2721
 kinetic energy error for atom=    0.0007 (will be added to EATOM!!)
  PAW_PBE Pb_d 06Sep2000                :
 energy of atom  2       EATOM=-1661.6185
 kinetic energy error for atom=    0.0037 (will be added to EATOM!!)
 
 
 POSCAR: Te4 Pb4                                 
  positions in direct lattice
  velocities in cartesian coordinates
 exchange correlation table for  LEXCH =        8
   RHO(1)=    0.500       N(1)  =     2000
   RHO(2)=  100.500       N(2)  =     4000
 


--------------------------------------------------------------------------------------------------------


 ion  position               nearest neighbor table
   1  0.250  0.251  0.875-   8 3.28   8 3.28   5 3.28   6 3.29   8 3.29   8 3.29
   2  0.250  0.249  0.375-   7 3.28   7 3.28   6 3.28   5 3.29   7 3.29   7 3.29
   3  0.750  0.749  0.125-   6 3.28   6 3.28   7 3.28   8 3.29   6 3.29   6 3.29
   4  0.750  0.751  0.625-   5 3.28   5 3.28   8 3.28   7 3.29   5 3.29   5 3.29
   5  0.250  0.252  0.625-   4 3.28   4 3.28   1 3.28   2 3.29   4 3.29   4 3.29
   6  0.250  0.248  0.125-   3 3.28   3 3.28   2 3.28   1 3.29   3 3.29   3 3.29
   7  0.750  0.748  0.375-   2 3.28   2 3.28   3 3.28   4 3.29   2 3.29   2 3.29
   8  0.750  0.752  0.875-   1 3.28   1 3.28   4 3.28   3 3.29   1 3.29   1 3.29
 
  LATTYP: Found a simple orthorhombic cell.
 ALAT       =     4.6341063907
 B/A-ratio  =     1.0038625643
 C/A-ratio  =     2.8353799618
  
  Lattice vectors:
  
 A1 = (  -0.0000000000,  -4.6341063907,   0.0000000000)
 A2 = (  -4.6520059247,   0.0000000000,   0.0000000000)
 A3 = (   0.0000000000,   0.0000000000, -13.1394524010)


Analysis of symmetry for initial positions (statically):
=====================================================================
 Subroutine PRICEL returns:
 Original cell was already a primitive cell.
 

 Routine SETGRP: Setting up the symmetry group for a 
 simple orthorhombic supercell.


 Subroutine GETGRP returns: Found  8 space group operations
 (whereof  2 operations were pure point group operations)
 out of a pool of  8 trial point group operations.


The static configuration has the point symmetry S_2 .
 The point group associated with its full space group is D_2h.


Analysis of symmetry for dynamics (positions and initial velocities):
=====================================================================
 Subroutine PRICEL returns:
 Original cell was already a primitive cell.
 

 Routine SETGRP: Setting up the symmetry group for a 
 simple orthorhombic supercell.


 Subroutine GETGRP returns: Found  8 space group operations
 (whereof  2 operations were pure point group operations)
 out of a pool of  8 trial point group operations.


The dynamic configuration has the point symmetry S_2 .
 The point group associated with its full space group is D_2h.
 
 
 KPOINTS: K-Mesh                                  

Automatic generation of k-mesh.
Space group operators:
 irot       det(A)        alpha          n_x          n_y          n_z        tau_x        tau_y        tau_z
    1     1.000000     0.000001     1.000000     0.000000     0.000000     0.000000     0.000000     0.000000
    2    -1.000000     0.000001     1.000000     0.000000     0.000000     0.000000     0.000000     0.000000
    3     1.000000   180.000000     0.000000     0.000000     1.000000    -0.500000    -0.500000    -0.500000
    4    -1.000000   180.000000     0.000000     0.000000     1.000000    -0.500000    -0.500000    -0.500000
    5     1.000000   180.000000     1.000000     0.000000     0.000000    -0.500000    -0.000000     0.000000
    6    -1.000000   180.000000     1.000000     0.000000     0.000000    -0.500000    -0.000000     0.000000
    7     1.000000   180.000000     0.000000     1.000000     0.000000     0.000000    -0.500000    -0.500000
    8    -1.000000   180.000000     0.000000     1.000000     0.000000     0.000000    -0.500000    -0.500000
 
 Subroutine IBZKPT returns following result:
 ===========================================
 
 Found    108 irreducible k-points:
 
 Following reciprocal coordinates:
            Coordinates               Weight
  0.000000  0.000000  0.000000      1.000000
  0.250000  0.000000  0.000000      2.000000
  0.500000  0.000000  0.000000      1.000000
  0.000000  0.090909  0.000000      2.000000
  0.250000  0.090909  0.000000      4.000000
  0.500000  0.090909  0.000000      2.000000
  0.000000  0.181818  0.000000      2.000000
  0.250000  0.181818  0.000000      4.000000
  0.500000  0.181818  0.000000      2.000000
  0.000000  0.272727  0.000000      2.000000
  0.250000  0.272727  0.000000      4.000000
  0.500000  0.272727  0.000000      2.000000
  0.000000  0.363636  0.000000      2.000000
  0.250000  0.363636  0.000000      4.000000
  0.500000  0.363636  0.000000      2.000000
  0.000000  0.454545  0.000000      2.000000
  0.250000  0.454545  0.000000      4.000000
  0.500000  0.454545  0.000000      2.000000
  0.000000  0.000000  0.090909      2.000000
  0.250000  0.000000  0.090909      4.000000
  0.500000  0.000000  0.090909      2.000000
  0.000000  0.090909  0.090909      4.000000
  0.250000  0.090909  0.090909      8.000000
  0.500000  0.090909  0.090909      4.000000
  0.000000  0.181818  0.090909      4.000000
  0.250000  0.181818  0.090909      8.000000
  0.500000  0.181818  0.090909      4.000000
  0.000000  0.272727  0.090909      4.000000
  0.250000  0.272727  0.090909      8.000000
  0.500000  0.272727  0.090909      4.000000
  0.000000  0.363636  0.090909      4.000000
  0.250000  0.363636  0.090909      8.000000
  0.500000  0.363636  0.090909      4.000000
  0.000000  0.454545  0.090909      4.000000
  0.250000  0.454545  0.090909      8.000000
  0.500000  0.454545  0.090909      4.000000
  0.000000  0.000000  0.181818      2.000000
  0.250000  0.000000  0.181818      4.000000
  0.500000  0.000000  0.181818      2.000000
  0.000000  0.090909  0.181818      4.000000
  0.250000  0.090909  0.181818      8.000000
  0.500000  0.090909  0.181818      4.000000
  0.000000  0.181818  0.181818      4.000000
  0.250000  0.181818  0.181818      8.000000
  0.500000  0.181818  0.181818      4.000000
  0.000000  0.272727  0.181818      4.000000
  0.250000  0.272727  0.181818      8.000000
  0.500000  0.272727  0.181818      4.000000
  0.000000  0.363636  0.181818      4.000000
  0.250000  0.363636  0.181818      8.000000
  0.500000  0.363636  0.181818      4.000000
  0.000000  0.454545  0.181818      4.000000
  0.250000  0.454545  0.181818      8.000000
  0.500000  0.454545  0.181818      4.000000
  0.000000  0.000000  0.272727      2.000000
  0.250000  0.000000  0.272727      4.000000
  0.500000  0.000000  0.272727      2.000000
  0.000000  0.090909  0.272727      4.000000
  0.250000  0.090909  0.272727      8.000000
  0.500000  0.090909  0.272727      4.000000
  0.000000  0.181818  0.272727      4.000000
  0.250000  0.181818  0.272727      8.000000
  0.500000  0.181818  0.272727      4.000000
  0.000000  0.272727  0.272727      4.000000
  0.250000  0.272727  0.272727      8.000000
  0.500000  0.272727  0.272727      4.000000
  0.000000  0.363636  0.272727      4.000000
  0.250000  0.363636  0.272727      8.000000
  0.500000  0.363636  0.272727      4.000000
  0.000000  0.454545  0.272727      4.000000
  0.250000  0.454545  0.272727      8.000000
  0.500000  0.454545  0.272727      4.000000
  0.000000  0.000000  0.363636      2.000000
  0.250000  0.000000  0.363636      4.000000
  0.500000  0.000000  0.363636      2.000000
  0.000000  0.090909  0.363636      4.000000
  0.250000  0.090909  0.363636      8.000000
  0.500000  0.090909  0.363636      4.000000
  0.000000  0.181818  0.363636      4.000000
  0.250000  0.181818  0.363636      8.000000
  0.500000  0.181818  0.363636      4.000000
  0.000000  0.272727  0.363636      4.000000
  0.250000  0.272727  0.363636      8.000000
  0.500000  0.272727  0.363636      4.000000
  0.000000  0.363636  0.363636      4.000000
  0.250000  0.363636  0.363636      8.000000
  0.500000  0.363636  0.363636      4.000000
  0.000000  0.454545  0.363636      4.000000
  0.250000  0.454545  0.363636      8.000000
  0.500000  0.454545  0.363636      4.000000
  0.000000  0.000000  0.454545      2.000000
  0.250000  0.000000  0.454545      4.000000
  0.500000  0.000000  0.454545      2.000000
  0.000000  0.090909  0.454545      4.000000
  0.250000  0.090909  0.454545      8.000000
  0.500000  0.090909  0.454545      4.000000
  0.000000  0.181818  0.454545      4.000000
  0.250000  0.181818  0.454545      8.000000
  0.500000  0.181818  0.454545      4.000000
  0.000000  0.272727  0.454545      4.000000
  0.250000  0.272727  0.454545      8.000000
  0.500000  0.272727  0.454545      4.000000
  0.000000  0.363636  0.454545      4.000000
  0.250000  0.363636  0.454545      8.000000
  0.500000  0.363636  0.454545      4.000000
  0.000000  0.454545  0.454545      4.000000
  0.250000  0.454545  0.454545      8.000000
  0.500000  0.454545  0.454545      4.000000
 
 Following cartesian coordinates:
            Coordinates               Weight
  0.000000  0.000000  0.000000      1.000000
  0.053740  0.000000  0.000000      2.000000
  0.107481  0.000000  0.000000      1.000000
  0.000000  0.019617  0.000000      2.000000
  0.053740  0.019617  0.000000      4.000000
  0.107481  0.019617  0.000000      2.000000
  0.000000  0.039235  0.000000      2.000000
  0.053740  0.039235  0.000000      4.000000
  0.107481  0.039235  0.000000      2.000000
  0.000000  0.058852  0.000000      2.000000
  0.053740  0.058852  0.000000      4.000000
  0.107481  0.058852  0.000000      2.000000
  0.000000  0.078470  0.000000      2.000000
  0.053740  0.078470  0.000000      4.000000
  0.107481  0.078470  0.000000      2.000000
  0.000000  0.098087  0.000000      2.000000
  0.053740  0.098087  0.000000      4.000000
  0.107481  0.098087  0.000000      2.000000
  0.000000  0.000000  0.006919      2.000000
  0.053740  0.000000  0.006919      4.000000
  0.107481  0.000000  0.006919      2.000000
  0.000000  0.019617  0.006919      4.000000
  0.053740  0.019617  0.006919      8.000000
  0.107481  0.019617  0.006919      4.000000
  0.000000  0.039235  0.006919      4.000000
  0.053740  0.039235  0.006919      8.000000
  0.107481  0.039235  0.006919      4.000000
  0.000000  0.058852  0.006919      4.000000
  0.053740  0.058852  0.006919      8.000000
  0.107481  0.058852  0.006919      4.000000
  0.000000  0.078470  0.006919      4.000000
  0.053740  0.078470  0.006919      8.000000
  0.107481  0.078470  0.006919      4.000000
  0.000000  0.098087  0.006919      4.000000
  0.053740  0.098087  0.006919      8.000000
  0.107481  0.098087  0.006919      4.000000
  0.000000  0.000000  0.013838      2.000000
  0.053740  0.000000  0.013838      4.000000
  0.107481  0.000000  0.013838      2.000000
  0.000000  0.019617  0.013838      4.000000
  0.053740  0.019617  0.013838      8.000000
  0.107481  0.019617  0.013838      4.000000
  0.000000  0.039235  0.013838      4.000000
  0.053740  0.039235  0.013838      8.000000
  0.107481  0.039235  0.013838      4.000000
  0.000000  0.058852  0.013838      4.000000
  0.053740  0.058852  0.013838      8.000000
  0.107481  0.058852  0.013838      4.000000
  0.000000  0.078470  0.013838      4.000000
  0.053740  0.078470  0.013838      8.000000
  0.107481  0.078470  0.013838      4.000000
  0.000000  0.098087  0.013838      4.000000
  0.053740  0.098087  0.013838      8.000000
  0.107481  0.098087  0.013838      4.000000
  0.000000  0.000000  0.020756      2.000000
  0.053740  0.000000  0.020756      4.000000
  0.107481  0.000000  0.020756      2.000000
  0.000000  0.019617  0.020756      4.000000
  0.053740  0.019617  0.020756      8.000000
  0.107481  0.019617  0.020756      4.000000
  0.000000  0.039235  0.020756      4.000000
  0.053740  0.039235  0.020756      8.000000
  0.107481  0.039235  0.020756      4.000000
  0.000000  0.058852  0.020756      4.000000
  0.053740  0.058852  0.020756      8.000000
  0.107481  0.058852  0.020756      4.000000
  0.000000  0.078470  0.020756      4.000000
  0.053740  0.078470  0.020756      8.000000
  0.107481  0.078470  0.020756      4.000000
  0.000000  0.098087  0.020756      4.000000
  0.053740  0.098087  0.020756      8.000000
  0.107481  0.098087  0.020756      4.000000
  0.000000  0.000000  0.027675      2.000000
  0.053740  0.000000  0.027675      4.000000
  0.107481  0.000000  0.027675      2.000000
  0.000000  0.019617  0.027675      4.000000
  0.053740  0.019617  0.027675      8.000000
  0.107481  0.019617  0.027675      4.000000
  0.000000  0.039235  0.027675      4.000000
  0.053740  0.039235  0.027675      8.000000
  0.107481  0.039235  0.027675      4.000000
  0.000000  0.058852  0.027675      4.000000
  0.053740  0.058852  0.027675      8.000000
  0.107481  0.058852  0.027675      4.000000
  0.000000  0.078470  0.027675      4.000000
  0.053740  0.078470  0.027675      8.000000
  0.107481  0.078470  0.027675      4.000000
  0.000000  0.098087  0.027675      4.000000
  0.053740  0.098087  0.027675      8.000000
  0.107481  0.098087  0.027675      4.000000
  0.000000  0.000000  0.034594      2.000000
  0.053740  0.000000  0.034594      4.000000
  0.107481  0.000000  0.034594      2.000000
  0.000000  0.019617  0.034594      4.000000
  0.053740  0.019617  0.034594      8.000000
  0.107481  0.019617  0.034594      4.000000
  0.000000  0.039235  0.034594      4.000000
  0.053740  0.039235  0.034594      8.000000
  0.107481  0.039235  0.034594      4.000000
  0.000000  0.058852  0.034594      4.000000
  0.053740  0.058852  0.034594      8.000000
  0.107481  0.058852  0.034594      4.000000
  0.000000  0.078470  0.034594      4.000000
  0.053740  0.078470  0.034594      8.000000
  0.107481  0.078470  0.034594      4.000000
  0.000000  0.098087  0.034594      4.000000
  0.053740  0.098087  0.034594      8.000000
  0.107481  0.098087  0.034594      4.000000
 


--------------------------------------------------------------------------------------------------------




 Dimension of arrays:
   k-points           NKPTS =    108   k-points in BZ     NKDIM =    108   number of bands    NBANDS=     48
   number of dos      NEDOS =    301   number of ions     NIONS =      8
   non local maximal  LDIM  =      6   non local SUM 2l+1 LMDIM =     18
   total plane-waves  NPLWV = 127008
   max r-space proj   IRMAX =      1   max aug-charges    IRDMAX= 208808
   dimension x,y,z NGX =    36 NGY =   36 NGZ =   98
   dimension x,y,z NGXF=    72 NGYF=   72 NGZF=  196
   support grid    NGXF=   144 NGYF=  144 NGZF=  392
   ions per type =               4   4
 NGX,Y,Z   is equivalent  to a cutoff of  12.87, 12.91, 12.40 a.u.
 NGXF,Y,Z  is equivalent  to a cutoff of  25.73, 25.83, 24.80 a.u.


 I would recommend the setting:
   dimension x,y,z NGX =    35 NGY =   34 NGZ =   98
 SYSTEM =  matgen-scf                              
 POSCAR =  Te4 Pb4                                 

 Startparameter for this run:
   NWRITE =      2    write-flag & timer
   PREC   = accura    normal or accurate (medium, high low for compatibility)
   ISTART =      0    job   : 0-new  1-cont  2-samecut
   ICHARG =      2    charge: 1-file 2-atom 10-const
   ISPIN  =      1    spin polarized calculation?
   LNONCOLLINEAR =      F non collinear calculations
   LSORBIT =      F    spin-orbit coupling
   INIWAV =      1    electr: 0-lowe 1-rand  2-diag
   LASPH  =      F    aspherical Exc in radial PAW
   METAGGA=      F    non-selfconsistent MetaGGA calc.

 Electronic Relaxation 1
   ENCUT  =  520.0 eV  38.22 Ry    6.18 a.u.   8.65  8.62 24.43*2*pi/ulx,y,z
   ENINI  =  520.0     initial cutoff
   ENAUG  =  391.9 eV  augmentation charge cutoff
   NELM   =    140;   NELMIN=  6; NELMDL= -5     # of ELM steps 
   EDIFF  = 0.1E-03   stopping-criterion for ELM
   LREAL  =      F    real-space projection
   NLSPLINE    = F    spline interpolate recip. space projectors
   LCOMPAT=      F    compatible to vasp.4.4
   GGA_COMPAT  = T    GGA compatible to vasp.4.4-vasp.4.6
   LMAXPAW     = -100 max onsite density
   LMAXMIX     =    2 max onsite mixed and CHGCAR
   VOSKOWN=      0    Vosko Wilk Nusair interpolation
   ROPT   =    0.00000   0.00000
 Ionic relaxation
   EDIFFG = -.1E-01   stopping-criterion for IOM
   NSW    =      0    number of steps for IOM
   NBLOCK =      1;   KBLOCK =      1    inner block; outer block 
   IBRION =     -1    ionic relax: 0-MD 1-quasi-New 2-CG
   NFREE  =      0    steps in history (QN), initial steepest desc. (CG)
   ISIF   =      2    stress and relaxation
   IWAVPR =     10    prediction:  0-non 1-charg 2-wave 3-comb
   ISYM   =      2    0-nonsym 1-usesym 2-fastsym
   LCORR  =      T    Harris-Foulkes like correction to forces

   POTIM  = 0.0500    time-step for ionic-motion
   TEIN   =    0.0    initial temperature
   TEBEG  =    0.0;   TEEND  =   0.0 temperature during run
   SMASS  =  -3.00    Nose mass-parameter (am)
   estimated Nose-frequenzy (Omega)   =  0.10E-29 period in steps =****** mass=  -0.495E-27a.u.
   SCALEE = 1.0000    scale energy and forces
   NPACO  =    256;   APACO  = 16.0  distance and # of slots for P.C.
   PSTRESS=    0.0 pullay stress

  Mass of Ions in am
   POMASS = 127.60207.20
  Ionic Valenz
   ZVAL   =   6.00 14.00
  Atomic Wigner-Seitz radii
   RWIGS  =  -1.00 -1.00
  virtual crystal weights 
   VCA    =   1.00  1.00
   NELECT =      80.0000    total number of electrons
   NUPDOWN=      -1.0000    fix difference up-down

 DOS related values:
   EMIN   =  10.00;   EMAX   =-10.00  energy-range for DOS
   EFERMI =   0.00
   ISMEAR =     0;   SIGMA  =   0.05  broadening in eV -4-tet -1-fermi 0-gaus

 Electronic relaxation 2 (details)
   IALGO  =     38    algorithm
   LDIAG  =      T    sub-space diagonalisation (order eigenvalues)
   LSUBROT=      F    optimize rotation matrix (better conditioning)
   TURBO    =      0    0=normal 1=particle mesh
   IRESTART =      0    0=no restart 2=restart with 2 vectors
   NREBOOT  =      0    no. of reboots
   NMIN     =      0    reboot dimension
   EREF     =   0.00    reference energy to select bands
   IMIX   =      4    mixing-type and parameters
     AMIX     =   0.10;   BMIX     =  1.20
     AMIX_MAG =   0.40;   BMIX_MAG =  1.20
     AMIN     =   0.10
     WC   =   100.;   INIMIX=   1;  MIXPRE=   1;  MAXMIX= -45

 Intra band minimization:
   WEIMIN = 0.0000     energy-eigenvalue tresh-hold
   EBREAK =  0.52E-06  absolut break condition
   DEPER  =   0.30     relativ break condition  

   TIME   =   0.40     timestep for ELM

  volume/ion in A,a.u.               =      35.41       238.94
  Fermi-wavevector in a.u.,A,eV,Ry     =   1.074097  2.029750 15.696839  1.153685
  Thomas-Fermi vector in A             =   2.209916
 
 Write flags
   LWAVE  =      F    write WAVECAR
   LCHARG =      T    write CHGCAR
   LVTOT  =      F    write LOCPOT, total local potential
   LVHAR  =      F    write LOCPOT, Hartree potential only
   LELF   =      F    write electronic localiz. function (ELF)
   LORBIT =     11    0 simple, 1 ext, 2 COOP (PROOUT)


 Dipole corrections
   LMONO  =      F    monopole corrections only (constant potential shift)
   LDIPOL =      F    correct potential (dipole corrections)
   IDIPOL =      0    1-x, 2-y, 3-z, 4-all directions 
   EPSILON=  1.0000000 bulk dielectric constant

 Exchange correlation treatment:
   GGA     =    --    GGA type
   LEXCH   =     8    internal setting for exchange type
   VOSKOWN=      0    Vosko Wilk Nusair interpolation
   LHFCALC =     F    Hartree Fock is set to
   LHFONE  =     F    Hartree Fock one center treatment
   AEXX    =    0.0000 exact exchange contribution

 Linear response parameters
   LEPSILON=     F    determine dielectric tensor
   LRPA    =     F    only Hartree local field effects (RPA)
   LNABLA  =     F    use nabla operator in PAW spheres
   LVEL    =     F    velocity operator in full k-point grid
   LINTERFAST=   F  fast interpolation
   KINTER  =     0    interpolate to denser k-point grid
   CSHIFT  =0.1000    complex shift for real part using Kramers Kronig
   OMEGAMAX=  -1.0    maximum frequency
   DEG_THRESHOLD= 0.2000000E-02 threshold for treating states as degnerate
   RTIME   =    0.100 relaxation time in fs

 Orbital magnetization related:
   ORBITALMAG=     F  switch on orbital magnetization
   LCHIMAG   =     F  perturbation theory with respect to B field
   DQ        =  0.001000  dq finite difference perturbation B field



--------------------------------------------------------------------------------------------------------


 Static calculation
 charge density and potential will be updated during run
 non-spin polarized calculation
 Variant of blocked Davidson
 Davidson routine will perform the subspace rotation
 perform sub-space diagonalisation
    after iterative eigenvector-optimisation
 modified Broyden-mixing scheme, WC =      100.0
 initial mixing is a Kerker type mixing with AMIX =  0.1000 and BMIX =      1.2000
 Hartree-type preconditioning will be used
 using additional bands            8
 reciprocal scheme for non local part
 use partial core corrections
 calculate Harris-corrections to forces 
   (improved forces if not selfconsistent)
 use gradient corrections 
 use of overlap-Matrix (Vanderbilt PP)
 Gauss-broadening in eV      SIGMA  =   0.05


--------------------------------------------------------------------------------------------------------


  energy-cutoff  :      520.00
  volume of cell :      283.26
      direct lattice vectors                 reciprocal lattice vectors
     4.652005925 -0.000000000  0.000000000     0.214961033 -0.000000000  0.000000000
     0.000000000  4.634106391  0.000000000     0.000000000  0.215791334  0.000000000
     0.000000000  0.000000000 13.139452401     0.000000000  0.000000000  0.076106672

  length of vectors
     4.652005925  4.634106391 13.139452401     0.214961033  0.215791334  0.076106672


 
 k-points in units of 2pi/SCALE and weight: K-Mesh                                  
   0.00000000  0.00000000  0.00000000       0.002
   0.05374026  0.00000000  0.00000000       0.004
   0.10748052  0.00000000  0.00000000       0.002
   0.00000000  0.01961739  0.00000000       0.004
   0.05374026  0.01961739  0.00000000       0.008
   0.10748052  0.01961739  0.00000000       0.004
   0.00000000  0.03923479  0.00000000       0.004
   0.05374026  0.03923479  0.00000000       0.008
   0.10748052  0.03923479  0.00000000       0.004
   0.00000000  0.05885218  0.00000000       0.004
   0.05374026  0.05885218  0.00000000       0.008
   0.10748052  0.05885218  0.00000000       0.004
   0.00000000  0.07846958  0.00000000       0.004
   0.05374026  0.07846958  0.00000000       0.008
   0.10748052  0.07846958  0.00000000       0.004
   0.00000000  0.09808697  0.00000000       0.004
   0.05374026  0.09808697  0.00000000       0.008
   0.10748052  0.09808697  0.00000000       0.004
   0.00000000  0.00000000  0.00691879       0.004
   0.05374026  0.00000000  0.00691879       0.008
   0.10748052  0.00000000  0.00691879       0.004
   0.00000000  0.01961739  0.00691879       0.008
   0.05374026  0.01961739  0.00691879       0.017
   0.10748052  0.01961739  0.00691879       0.008
   0.00000000  0.03923479  0.00691879       0.008
   0.05374026  0.03923479  0.00691879       0.017
   0.10748052  0.03923479  0.00691879       0.008
   0.00000000  0.05885218  0.00691879       0.008
   0.05374026  0.05885218  0.00691879       0.017
   0.10748052  0.05885218  0.00691879       0.008
   0.00000000  0.07846958  0.00691879       0.008
   0.05374026  0.07846958  0.00691879       0.017
   0.10748052  0.07846958  0.00691879       0.008
   0.00000000  0.09808697  0.00691879       0.008
   0.05374026  0.09808697  0.00691879       0.017
   0.10748052  0.09808697  0.00691879       0.008
   0.00000000  0.00000000  0.01383758       0.004
   0.05374026  0.00000000  0.01383758       0.008
   0.10748052  0.00000000  0.01383758       0.004
   0.00000000  0.01961739  0.01383758       0.008
   0.05374026  0.01961739  0.01383758       0.017
   0.10748052  0.01961739  0.01383758       0.008
   0.00000000  0.03923479  0.01383758       0.008
   0.05374026  0.03923479  0.01383758       0.017
   0.10748052  0.03923479  0.01383758       0.008
   0.00000000  0.05885218  0.01383758       0.008
   0.05374026  0.05885218  0.01383758       0.017
   0.10748052  0.05885218  0.01383758       0.008
   0.00000000  0.07846958  0.01383758       0.008
   0.05374026  0.07846958  0.01383758       0.017
   0.10748052  0.07846958  0.01383758       0.008
   0.00000000  0.09808697  0.01383758       0.008
   0.05374026  0.09808697  0.01383758       0.017
   0.10748052  0.09808697  0.01383758       0.008
   0.00000000  0.00000000  0.02075637       0.004
   0.05374026  0.00000000  0.02075637       0.008
   0.10748052  0.00000000  0.02075637       0.004
   0.00000000  0.01961739  0.02075637       0.008
   0.05374026  0.01961739  0.02075637       0.017
   0.10748052  0.01961739  0.02075637       0.008
   0.00000000  0.03923479  0.02075637       0.008
   0.05374026  0.03923479  0.02075637       0.017
   0.10748052  0.03923479  0.02075637       0.008
   0.00000000  0.05885218  0.02075637       0.008
   0.05374026  0.05885218  0.02075637       0.017
   0.10748052  0.05885218  0.02075637       0.008
   0.00000000  0.07846958  0.02075637       0.008
   0.05374026  0.07846958  0.02075637       0.017
   0.10748052  0.07846958  0.02075637       0.008
   0.00000000  0.09808697  0.02075637       0.008
   0.05374026  0.09808697  0.02075637       0.017
   0.10748052  0.09808697  0.02075637       0.008
   0.00000000  0.00000000  0.02767515       0.004
   0.05374026  0.00000000  0.02767515       0.008
   0.10748052  0.00000000  0.02767515       0.004
   0.00000000  0.01961739  0.02767515       0.008
   0.05374026  0.01961739  0.02767515       0.017
   0.10748052  0.01961739  0.02767515       0.008
   0.00000000  0.03923479  0.02767515       0.008
   0.05374026  0.03923479  0.02767515       0.017
   0.10748052  0.03923479  0.02767515       0.008
   0.00000000  0.05885218  0.02767515       0.008
   0.05374026  0.05885218  0.02767515       0.017
   0.10748052  0.05885218  0.02767515       0.008
   0.00000000  0.07846958  0.02767515       0.008
   0.05374026  0.07846958  0.02767515       0.017
   0.10748052  0.07846958  0.02767515       0.008
   0.00000000  0.09808697  0.02767515       0.008
   0.05374026  0.09808697  0.02767515       0.017
   0.10748052  0.09808697  0.02767515       0.008
   0.00000000  0.00000000  0.03459394       0.004
   0.05374026  0.00000000  0.03459394       0.008
   0.10748052  0.00000000  0.03459394       0.004
   0.00000000  0.01961739  0.03459394       0.008
   0.05374026  0.01961739  0.03459394       0.017
   0.10748052  0.01961739  0.03459394       0.008
   0.00000000  0.03923479  0.03459394       0.008
   0.05374026  0.03923479  0.03459394       0.017
   0.10748052  0.03923479  0.03459394       0.008
   0.00000000  0.05885218  0.03459394       0.008
   0.05374026  0.05885218  0.03459394       0.017
   0.10748052  0.05885218  0.03459394       0.008
   0.00000000  0.07846958  0.03459394       0.008
   0.05374026  0.07846958  0.03459394       0.017
   0.10748052  0.07846958  0.03459394       0.008
   0.00000000  0.09808697  0.03459394       0.008
   0.05374026  0.09808697  0.03459394       0.017
   0.10748052  0.09808697  0.03459394       0.008
 
 k-points in reciprocal lattice and weights: K-Mesh                                  
   0.00000000  0.00000000  0.00000000       0.002
   0.25000000  0.00000000  0.00000000       0.004
   0.50000000  0.00000000  0.00000000       0.002
   0.00000000  0.09090909  0.00000000       0.004
   0.25000000  0.09090909  0.00000000       0.008
   0.50000000  0.09090909  0.00000000       0.004
   0.00000000  0.18181818  0.00000000       0.004
   0.25000000  0.18181818  0.00000000       0.008
   0.50000000  0.18181818  0.00000000       0.004
   0.00000000  0.27272727  0.00000000       0.004
   0.25000000  0.27272727  0.00000000       0.008
   0.50000000  0.27272727  0.00000000       0.004
   0.00000000  0.36363636  0.00000000       0.004
   0.25000000  0.36363636  0.00000000       0.008
   0.50000000  0.36363636  0.00000000       0.004
   0.00000000  0.45454545  0.00000000       0.004
   0.25000000  0.45454545  0.00000000       0.008
   0.50000000  0.45454545  0.00000000       0.004
   0.00000000  0.00000000  0.09090909       0.004
   0.25000000  0.00000000  0.09090909       0.008
   0.50000000  0.00000000  0.09090909       0.004
   0.00000000  0.09090909  0.09090909       0.008
   0.25000000  0.09090909  0.09090909       0.017
   0.50000000  0.09090909  0.09090909       0.008
   0.00000000  0.18181818  0.09090909       0.008
   0.25000000  0.18181818  0.09090909       0.017
   0.50000000  0.18181818  0.09090909       0.008
   0.00000000  0.27272727  0.09090909       0.008
   0.25000000  0.27272727  0.09090909       0.017
   0.50000000  0.27272727  0.09090909       0.008
   0.00000000  0.36363636  0.09090909       0.008
   0.25000000  0.36363636  0.09090909       0.017
   0.50000000  0.36363636  0.09090909       0.008
   0.00000000  0.45454545  0.09090909       0.008
   0.25000000  0.45454545  0.09090909       0.017
   0.50000000  0.45454545  0.09090909       0.008
   0.00000000  0.00000000  0.18181818       0.004
   0.25000000  0.00000000  0.18181818       0.008
   0.50000000  0.00000000  0.18181818       0.004
   0.00000000  0.09090909  0.18181818       0.008
   0.25000000  0.09090909  0.18181818       0.017
   0.50000000  0.09090909  0.18181818       0.008
   0.00000000  0.18181818  0.18181818       0.008
   0.25000000  0.18181818  0.18181818       0.017
   0.50000000  0.18181818  0.18181818       0.008
   0.00000000  0.27272727  0.18181818       0.008
   0.25000000  0.27272727  0.18181818       0.017
   0.50000000  0.27272727  0.18181818       0.008
   0.00000000  0.36363636  0.18181818       0.008
   0.25000000  0.36363636  0.18181818       0.017
   0.50000000  0.36363636  0.18181818       0.008
   0.00000000  0.45454545  0.18181818       0.008
   0.25000000  0.45454545  0.18181818       0.017
   0.50000000  0.45454545  0.18181818       0.008
   0.00000000  0.00000000  0.27272727       0.004
   0.25000000  0.00000000  0.27272727       0.008
   0.50000000  0.00000000  0.27272727       0.004
   0.00000000  0.09090909  0.27272727       0.008
   0.25000000  0.09090909  0.27272727       0.017
   0.50000000  0.09090909  0.27272727       0.008
   0.00000000  0.18181818  0.27272727       0.008
   0.25000000  0.18181818  0.27272727       0.017
   0.50000000  0.18181818  0.27272727       0.008
   0.00000000  0.27272727  0.27272727       0.008
   0.25000000  0.27272727  0.27272727       0.017
   0.50000000  0.27272727  0.27272727       0.008
   0.00000000  0.36363636  0.27272727       0.008
   0.25000000  0.36363636  0.27272727       0.017
   0.50000000  0.36363636  0.27272727       0.008
   0.00000000  0.45454545  0.27272727       0.008
   0.25000000  0.45454545  0.27272727       0.017
   0.50000000  0.45454545  0.27272727       0.008
   0.00000000  0.00000000  0.36363636       0.004
   0.25000000  0.00000000  0.36363636       0.008
   0.50000000  0.00000000  0.36363636       0.004
   0.00000000  0.09090909  0.36363636       0.008
   0.25000000  0.09090909  0.36363636       0.017
   0.50000000  0.09090909  0.36363636       0.008
   0.00000000  0.18181818  0.36363636       0.008
   0.25000000  0.18181818  0.36363636       0.017
   0.50000000  0.18181818  0.36363636       0.008
   0.00000000  0.27272727  0.36363636       0.008
   0.25000000  0.27272727  0.36363636       0.017
   0.50000000  0.27272727  0.36363636       0.008
   0.00000000  0.36363636  0.36363636       0.008
   0.25000000  0.36363636  0.36363636       0.017
   0.50000000  0.36363636  0.36363636       0.008
   0.00000000  0.45454545  0.36363636       0.008
   0.25000000  0.45454545  0.36363636       0.017
   0.50000000  0.45454545  0.36363636       0.008
   0.00000000  0.00000000  0.45454545       0.004
   0.25000000  0.00000000  0.45454545       0.008
   0.50000000  0.00000000  0.45454545       0.004
   0.00000000  0.09090909  0.45454545       0.008
   0.25000000  0.09090909  0.45454545       0.017
   0.50000000  0.09090909  0.45454545       0.008
   0.00000000  0.18181818  0.45454545       0.008
   0.25000000  0.18181818  0.45454545       0.017
   0.50000000  0.18181818  0.45454545       0.008
   0.00000000  0.27272727  0.45454545       0.008
   0.25000000  0.27272727  0.45454545       0.017
   0.50000000  0.27272727  0.45454545       0.008
   0.00000000  0.36363636  0.45454545       0.008
   0.25000000  0.36363636  0.45454545       0.017
   0.50000000  0.36363636  0.45454545       0.008
   0.00000000  0.45454545  0.45454545       0.008
   0.25000000  0.45454545  0.45454545       0.017
   0.50000000  0.45454545  0.45454545       0.008
 
 position of ions in fractional coordinates (direct lattice) 
   0.25000000  0.25058240  0.87503084
   0.25000000  0.24941760  0.37503084
   0.75000000  0.74941760  0.12496916
   0.75000000  0.75058240  0.62496916
   0.25000000  0.25214730  0.62512050
   0.25000000  0.24785270  0.12512050
   0.75000000  0.74785270  0.37487950
   0.75000000  0.75214730  0.87487950
 
 position of ions in cartesian coordinates  (Angst):
   1.16300148  1.16122549 11.49742613
   1.16300148  1.15582771  4.92769993
   3.48900444  3.47288090  1.64202627
   3.48900444  3.47827868  8.21175247
   1.16300148  1.16847742  8.21374103
   1.16300148  1.14857578  1.64401483
   3.48900444  3.46562897  4.92571137
   3.48900444  3.48553061 11.49543757
 


--------------------------------------------------------------------------------------------------------


 k-point  1 :   0.0000 0.0000 0.0000  plane waves:    7673
 k-point  2 :   0.2500 0.0000 0.0000  plane waves:    7623
 k-point  3 :   0.5000 0.0000 0.0000  plane waves:    7654
 k-point  4 :   0.0000 0.0909 0.0000  plane waves:    7653
 k-point  5 :   0.2500 0.0909 0.0000  plane waves:    7639
 k-point  6 :   0.5000 0.0909 0.0000  plane waves:    7626
 k-point  7 :   0.0000 0.1818 0.0000  plane waves:    7641
 k-point  8 :   0.2500 0.1818 0.0000  plane waves:    7640
 k-point  9 :   0.5000 0.1818 0.0000  plane waves:    7612
 k-point 10 :   0.0000 0.2727 0.0000  plane waves:    7623
 k-point 11 :   0.2500 0.2727 0.0000  plane waves:    7648
 k-point 12 :   0.5000 0.2727 0.0000  plane waves:    7614
 k-point 13 :   0.0000 0.3636 0.0000  plane waves:    7609
 k-point 14 :   0.2500 0.3636 0.0000  plane waves:    7624
 k-point 15 :   0.5000 0.3636 0.0000  plane waves:    7626
 k-point 16 :   0.0000 0.4545 0.0000  plane waves:    7628
 k-point 17 :   0.2500 0.4545 0.0000  plane waves:    7620
 k-point 18 :   0.5000 0.4545 0.0000  plane waves:    7634
 k-point 19 :   0.0000 0.0000 0.0909  plane waves:    7659
 k-point 20 :   0.2500 0.0000 0.0909  plane waves:    7617
 k-point 21 :   0.5000 0.0000 0.0909  plane waves:    7628
 k-point 22 :   0.0000 0.0909 0.0909  plane waves:    7639
 k-point 23 :   0.2500 0.0909 0.0909  plane waves:    7638
 k-point 24 :   0.5000 0.0909 0.0909  plane waves:    7628
 k-point 25 :   0.0000 0.1818 0.0909  plane waves:    7641
 k-point 26 :   0.2500 0.1818 0.0909  plane waves:    7629
 k-point 27 :   0.5000 0.1818 0.0909  plane waves:    7628
 k-point 28 :   0.0000 0.2727 0.0909  plane waves:    7621
 k-point 29 :   0.2500 0.2727 0.0909  plane waves:    7635
 k-point 30 :   0.5000 0.2727 0.0909  plane waves:    7620
 k-point 31 :   0.0000 0.3636 0.0909  plane waves:    7621
 k-point 32 :   0.2500 0.3636 0.0909  plane waves:    7633
 k-point 33 :   0.5000 0.3636 0.0909  plane waves:    7612
 k-point 34 :   0.0000 0.4545 0.0909  plane waves:    7632
 k-point 35 :   0.2500 0.4545 0.0909  plane waves:    7619
 k-point 36 :   0.5000 0.4545 0.0909  plane waves:    7618
 k-point 37 :   0.0000 0.0000 0.1818  plane waves:    7667
 k-point 38 :   0.2500 0.0000 0.1818  plane waves:    7633
 k-point 39 :   0.5000 0.0000 0.1818  plane waves:    7640
 k-point 40 :   0.0000 0.0909 0.1818  plane waves:    7637
 k-point 41 :   0.2500 0.0909 0.1818  plane waves:    7633
 k-point 42 :   0.5000 0.0909 0.1818  plane waves:    7626
 k-point 43 :   0.0000 0.1818 0.1818  plane waves:    7631
 k-point 44 :   0.2500 0.1818 0.1818  plane waves:    7630
 k-point 45 :   0.5000 0.1818 0.1818  plane waves:    7630
 k-point 46 :   0.0000 0.2727 0.1818  plane waves:    7637
 k-point 47 :   0.2500 0.2727 0.1818  plane waves:    7631
 k-point 48 :   0.5000 0.2727 0.1818  plane waves:    7612
 k-point 49 :   0.0000 0.3636 0.1818  plane waves:    7627
 k-point 50 :   0.2500 0.3636 0.1818  plane waves:    7619
 k-point 51 :   0.5000 0.3636 0.1818  plane waves:    7608
 k-point 52 :   0.0000 0.4545 0.1818  plane waves:    7642
 k-point 53 :   0.2500 0.4545 0.1818  plane waves:    7619
 k-point 54 :   0.5000 0.4545 0.1818  plane waves:    7620
 k-point 55 :   0.0000 0.0000 0.2727  plane waves:    7661
 k-point 56 :   0.2500 0.0000 0.2727  plane waves:    7630
 k-point 57 :   0.5000 0.0000 0.2727  plane waves:    7624
 k-point 58 :   0.0000 0.0909 0.2727  plane waves:    7643
 k-point 59 :   0.2500 0.0909 0.2727  plane waves:    7638
 k-point 60 :   0.5000 0.0909 0.2727  plane waves:    7626
 k-point 61 :   0.0000 0.1818 0.2727  plane waves:    7642
 k-point 62 :   0.2500 0.1818 0.2727  plane waves:    7636
 k-point 63 :   0.5000 0.1818 0.2727  plane waves:    7642
 k-point 64 :   0.0000 0.2727 0.2727  plane waves:    7632
 k-point 65 :   0.2500 0.2727 0.2727  plane waves:    7627
 k-point 66 :   0.5000 0.2727 0.2727  plane waves:    7608
 k-point 67 :   0.0000 0.3636 0.2727  plane waves:    7626
 k-point 68 :   0.2500 0.3636 0.2727  plane waves:    7618
 k-point 69 :   0.5000 0.3636 0.2727  plane waves:    7606
 k-point 70 :   0.0000 0.4545 0.2727  plane waves:    7623
 k-point 71 :   0.2500 0.4545 0.2727  plane waves:    7615
 k-point 72 :   0.5000 0.4545 0.2727  plane waves:    7618
 k-point 73 :   0.0000 0.0000 0.3636  plane waves:    7661
 k-point 74 :   0.2500 0.0000 0.3636  plane waves:    7624
 k-point 75 :   0.5000 0.0000 0.3636  plane waves:    7654
 k-point 76 :   0.0000 0.0909 0.3636  plane waves:    7640
 k-point 77 :   0.2500 0.0909 0.3636  plane waves:    7637
 k-point 78 :   0.5000 0.0909 0.3636  plane waves:    7646
 k-point 79 :   0.0000 0.1818 0.3636  plane waves:    7654
 k-point 80 :   0.2500 0.1818 0.3636  plane waves:    7622
 k-point 81 :   0.5000 0.1818 0.3636  plane waves:    7636
 k-point 82 :   0.0000 0.2727 0.3636  plane waves:    7634
 k-point 83 :   0.2500 0.2727 0.3636  plane waves:    7626
 k-point 84 :   0.5000 0.2727 0.3636  plane waves:    7606
 k-point 85 :   0.0000 0.3636 0.3636  plane waves:    7620
 k-point 86 :   0.2500 0.3636 0.3636  plane waves:    7615
 k-point 87 :   0.5000 0.3636 0.3636  plane waves:    7584
 k-point 88 :   0.0000 0.4545 0.3636  plane waves:    7626
 k-point 89 :   0.2500 0.4545 0.3636  plane waves:    7608
 k-point 90 :   0.5000 0.4545 0.3636  plane waves:    7602
 k-point 91 :   0.0000 0.0000 0.4545  plane waves:    7646
 k-point 92 :   0.2500 0.0000 0.4545  plane waves:    7636
 k-point 93 :   0.5000 0.0000 0.4545  plane waves:    7634
 k-point 94 :   0.0000 0.0909 0.4545  plane waves:    7651
 k-point 95 :   0.2500 0.0909 0.4545  plane waves:    7624
 k-point 96 :   0.5000 0.0909 0.4545  plane waves:    7654
 k-point 97 :   0.0000 0.1818 0.4545  plane waves:    7648
 k-point 98 :   0.2500 0.1818 0.4545  plane waves:    7625
 k-point 99 :   0.5000 0.1818 0.4545  plane waves:    7644
 k-point ** :   0.0000 0.2727 0.4545  plane waves:    7630
 k-point ** :   0.2500 0.2727 0.4545  plane waves:    7628
 k-point ** :   0.5000 0.2727 0.4545  plane waves:    7608
 k-point ** :   0.0000 0.3636 0.4545  plane waves:    7618
 k-point ** :   0.2500 0.3636 0.4545  plane waves:    7620
 k-point ** :   0.5000 0.3636 0.4545  plane waves:    7578
 k-point ** :   0.0000 0.4545 0.4545  plane waves:    7624
 k-point ** :   0.2500 0.4545 0.4545  plane waves:    7610
 k-point ** :   0.5000 0.4545 0.4545  plane waves:    7586

 maximum and minimum number of plane-waves per node :      1950     1882

 maximum number of plane-waves:      7673
 maximum index in each direction: 
   IXMAX=    8   IYMAX=    8   IZMAX=   24
   IXMIN=   -9   IYMIN=   -9   IZMIN=  -24

 NGX is ok and might be reduce to  36
 NGY is ok and might be reduce to  36
 NGZ is ok and might be reduce to  98

 parallel 3D FFT for wavefunctions:
    minimum data exchange during FFTs selected (reduces bandwidth)
 parallel 3D FFT for charge:
    minimum data exchange during FFTs selected (reduces bandwidth)


 total amount of memory used by VASP on root node   127303. kBytes
========================================================================

   base      :      30000. kBytes
   nonl-proj :      59590. kBytes
   fftplans  :       7146. kBytes
   grid      :       3663. kBytes
   one-center:         31. kBytes
   wavefun   :      26873. kBytes
 
     INWAV:  cpu time    0.0010: real time    0.0006
 Broyden mixing: mesh for mixing (old mesh)
   NGX = 17   NGY = 17   NGZ = 49
  (NGX  = 72   NGY  = 72   NGZ  =196)
  gives a total of  14161 points

 initial charge density was supplied:
 charge density of overlapping atoms calculated
 number of electron      80.0000000 magnetization 
 keeping initial charge density in first step


--------------------------------------------------------------------------------------------------------


 Maximum index for augmentation-charges         7736 (set IRDMAX)


--------------------------------------------------------------------------------------------------------


 First call to EWALD:  gamma=   0.270
 Maximum number of real-space cells 4x 4x 2
 Maximum number of reciprocal cells 2x 2x 5

 FEWALD executed in parallel
    FEWALD:  cpu time    0.0020: real time    0.0024


----------------------------------------- Iteration    1(   1)  ---------------------------------------


    POTLOK:  cpu time    0.0350: real time    0.0356
    SETDIJ:  cpu time    0.0650: real time    0.0657
     EDDAV:  cpu time    8.8337: real time    8.8706
       DOS:  cpu time    0.0040: real time    0.0040
    --------------------------------------------
      LOOP:  cpu time    8.9406: real time    8.9940

 eigenvalue-minimisations  : 10368
 total energy-change (2. order) : 0.8049906E+03  (-0.3569505E+04)
 number of electron      80.0000000 magnetization 
 augmentation part       80.0000000 magnetization 

 Free energy of the ion-electron system (eV)
  ---------------------------------------------------
  alpha Z        PSCENC =       137.28279626
  Ewald energy   TEWEN  =     -5467.32054453
  -Hartree energ DENC   =     -2066.06931852
  -exchange      EXHF   =         0.00000000
  -V(xc)+E(xc)   XCENC  =        38.38953994
  PAW double counting   =      6572.61797964    -6352.00421900
  entropy T*S    EENTRO =        -0.00358176
  eigenvalues    EBANDS =       402.55308425
  atomic energy  EATOM  =      7539.54482681
  Solvation  Ediel_sol  =         0.00000000
  ---------------------------------------------------
  free energy    TOTEN  =       804.99056310 eV

  energy without entropy =      804.99414485  energy(sigma->0) =      804.99235398


--------------------------------------------------------------------------------------------------------




----------------------------------------- Iteration    1(   2)  ---------------------------------------


     EDDAV:  cpu time    8.9946: real time    9.0157
       DOS:  cpu time    0.0030: real time    0.0031
    --------------------------------------------
      LOOP:  cpu time    8.9996: real time    9.0310

 eigenvalue-minimisations  : 10632
 total energy-change (2. order) :-0.7491025E+03  (-0.7377323E+03)
 number of electron      80.0000000 magnetization 
 augmentation part       80.0000000 magnetization 

 Free energy of the ion-electron system (eV)
  ---------------------------------------------------
  alpha Z        PSCENC =       137.28279626
  Ewald energy   TEWEN  =     -5467.32054453
  -Hartree energ DENC   =     -2066.06931852
  -exchange      EXHF   =         0.00000000
  -V(xc)+E(xc)   XCENC  =        38.38953994
  PAW double counting   =      6572.61797964    -6352.00421900
  entropy T*S    EENTRO =        -0.00253583
  eigenvalues    EBANDS =      -346.55049787
  atomic energy  EATOM  =      7539.54482681
  Solvation  Ediel_sol  =         0.00000000
  ---------------------------------------------------
  free energy    TOTEN  =        55.88802690 eV

  energy without entropy =       55.89056273  energy(sigma->0) =       55.88929481


--------------------------------------------------------------------------------------------------------




----------------------------------------- Iteration    1(   3)  ---------------------------------------


     EDDAV:  cpu time   10.7214: real time   10.7580
       DOS:  cpu time    0.0020: real time    0.0017
    --------------------------------------------
      LOOP:  cpu time   10.7264: real time   10.7745

 eigenvalue-minimisations  : 13344
 total energy-change (2. order) :-0.8284330E+02  (-0.8105995E+02)
 number of electron      80.0000000 magnetization 
 augmentation part       80.0000000 magnetization 

 Free energy of the ion-electron system (eV)
  ---------------------------------------------------
  alpha Z        PSCENC =       137.28279626
  Ewald energy   TEWEN  =     -5467.32054453
  -Hartree energ DENC   =     -2066.06931852
  -exchange      EXHF   =         0.00000000
  -V(xc)+E(xc)   XCENC  =        38.38953994
  PAW double counting   =      6572.61797964    -6352.00421900
  entropy T*S    EENTRO =        -0.00000000
  eigenvalues    EBANDS =      -429.39633171
  atomic energy  EATOM  =      7539.54482681
  Solvation  Ediel_sol  =         0.00000000
  ---------------------------------------------------
  free energy    TOTEN  =       -26.95527111 eV

  energy without entropy =      -26.95527111  energy(sigma->0) =      -26.95527111


--------------------------------------------------------------------------------------------------------




----------------------------------------- Iteration    1(   4)  ---------------------------------------


     EDDAV:  cpu time   10.3814: real time   10.4044
       DOS:  cpu time    0.0020: real time    0.0017
    --------------------------------------------
      LOOP:  cpu time   10.3844: real time   10.4223

 eigenvalue-minimisations  : 12840
 total energy-change (2. order) :-0.3546579E+01  (-0.3541359E+01)
 number of electron      80.0000000 magnetization 
 augmentation part       80.0000000 magnetization 

 Free energy of the ion-electron system (eV)
  ---------------------------------------------------
  alpha Z        PSCENC =       137.28279626
  Ewald energy   TEWEN  =     -5467.32054453
  -Hartree energ DENC   =     -2066.06931852
  -exchange      EXHF   =         0.00000000
  -V(xc)+E(xc)   XCENC  =        38.38953994
  PAW double counting   =      6572.61797964    -6352.00421900
  entropy T*S    EENTRO =        -0.00000000
  eigenvalues    EBANDS =      -432.94291118
  atomic energy  EATOM  =      7539.54482681
  Solvation  Ediel_sol  =         0.00000000
  ---------------------------------------------------
  free energy    TOTEN  =       -30.50185058 eV

  energy without entropy =      -30.50185058  energy(sigma->0) =      -30.50185058


--------------------------------------------------------------------------------------------------------




----------------------------------------- Iteration    1(   5)  ---------------------------------------


     EDDAV:  cpu time   11.3203: real time   11.3580
       DOS:  cpu time    0.0020: real time    0.0018
    CHARGE:  cpu time    0.5529: real time    0.5554
    MIXING:  cpu time    0.0030: real time    0.0031
    --------------------------------------------
      LOOP:  cpu time   11.8802: real time   11.9297

 eigenvalue-minimisations  : 14316
 total energy-change (2. order) :-0.1663183E+00  (-0.1662743E+00)
 number of electron      80.0000001 magnetization 
 augmentation part       17.4015129 magnetization 

 Broyden mixing:
  rms(total) = 0.61087E+00    rms(broyden)= 0.61086E+00
  rms(prec ) = 0.68949E+00
  weight for this iteration     100.00

 Free energy of the ion-electron system (eV)
  ---------------------------------------------------
  alpha Z        PSCENC =       137.28279626
  Ewald energy   TEWEN  =     -5467.32054453
  -Hartree energ DENC   =     -2066.06931852
  -exchange      EXHF   =         0.00000000
  -V(xc)+E(xc)   XCENC  =        38.38953994
  PAW double counting   =      6572.61797964    -6352.00421900
  entropy T*S    EENTRO =        -0.00000000
  eigenvalues    EBANDS =      -433.10922952
  atomic energy  EATOM  =      7539.54482681
  Solvation  Ediel_sol  =         0.00000000
  ---------------------------------------------------
  free energy    TOTEN  =       -30.66816892 eV

  energy without entropy =      -30.66816892  energy(sigma->0) =      -30.66816892


--------------------------------------------------------------------------------------------------------




----------------------------------------- Iteration    1(   6)  ---------------------------------------


    POTLOK:  cpu time    0.0330: real time    0.0341
    SETDIJ:  cpu time    0.0650: real time    0.0642
     EDDAV:  cpu time   10.9973: real time   11.0225
       DOS:  cpu time    0.0020: real time    0.0018
    CHARGE:  cpu time    0.5539: real time    0.5544
    MIXING:  cpu time    0.0020: real time    0.0018
    --------------------------------------------
      LOOP:  cpu time   11.6552: real time   11.6948

 eigenvalue-minimisations  : 14292
 total energy-change (2. order) : 0.2650270E+00  (-0.1856479E-01)
 number of electron      80.0000001 magnetization 
 augmentation part       17.4423534 magnetization 

 Broyden mixing:
  rms(total) = 0.55137E+00    rms(broyden)= 0.55137E+00
  rms(prec ) = 0.60542E+00
  weight for this iteration     100.00

 eigenvalues of (default mixing * dielectric matrix)
  average eigenvalue GAMMA=   6.8562
  6.8562

 Free energy of the ion-electron system (eV)
  ---------------------------------------------------
  alpha Z        PSCENC =       137.28279626
  Ewald energy   TEWEN  =     -5467.32054453
  -Hartree energ DENC   =     -2061.67568986
  -exchange      EXHF   =         0.00000000
  -V(xc)+E(xc)   XCENC  =        38.38709830
  PAW double counting   =      6621.99302333    -6400.78374964
  entropy T*S    EENTRO =        -0.00000000
  eigenvalues    EBANDS =      -437.83090257
  atomic energy  EATOM  =      7539.54482681
  Solvation  Ediel_sol  =         0.00000000
  ---------------------------------------------------
  free energy    TOTEN  =       -30.40314189 eV

  energy without entropy =      -30.40314189  energy(sigma->0) =      -30.40314189


--------------------------------------------------------------------------------------------------------




----------------------------------------- Iteration    1(   7)  ---------------------------------------


    POTLOK:  cpu time    0.0340: real time    0.0341
    SETDIJ:  cpu time    0.0630: real time    0.0642
     EDDAV:  cpu time   10.7024: real time   10.7366
       DOS:  cpu time    0.0010: real time    0.0018
    CHARGE:  cpu time    0.5549: real time    0.5556
    MIXING:  cpu time    0.0020: real time    0.0019
    --------------------------------------------
      LOOP:  cpu time   11.3613: real time   11.4085

 eigenvalue-minimisations  : 13800
 total energy-change (2. order) : 0.2694246E+00  (-0.3294941E+00)
 number of electron      80.0000001 magnetization 
 augmentation part       17.6608034 magnetization 

 Broyden mixing:
  rms(total) = 0.33049E+00    rms(broyden)= 0.33049E+00
  rms(prec ) = 0.34525E+00
  weight for this iteration     100.00

 eigenvalues of (default mixing * dielectric matrix)
  average eigenvalue GAMMA=   6.4024
  3.5015  9.3033

 Free energy of the ion-electron system (eV)
  ---------------------------------------------------
  alpha Z        PSCENC =       137.28279626
  Ewald energy   TEWEN  =     -5467.32054453
  -Hartree energ DENC   =     -2043.13526752
  -exchange      EXHF   =         0.00000000
  -V(xc)+E(xc)   XCENC  =        38.45878284
  PAW double counting   =      6944.34170423    -6720.47894443
  entropy T*S    EENTRO =        -0.00000000
  eigenvalues    EBANDS =      -458.82707098
  atomic energy  EATOM  =      7539.54482681
  Solvation  Ediel_sol  =         0.00000000
  ---------------------------------------------------
  free energy    TOTEN  =       -30.13371733 eV

  energy without entropy =      -30.13371733  energy(sigma->0) =      -30.13371733


--------------------------------------------------------------------------------------------------------




----------------------------------------- Iteration    1(   8)  ---------------------------------------


    POTLOK:  cpu time    0.0340: real time    0.0340
    SETDIJ:  cpu time    0.0630: real time    0.0642
     EDDAV:  cpu time   10.0435: real time   10.0653
       DOS:  cpu time    0.0020: real time    0.0018
    CHARGE:  cpu time    0.5549: real time    0.5555
    MIXING:  cpu time    0.0010: real time    0.0015
    --------------------------------------------
      LOOP:  cpu time   10.7014: real time   10.7432

 eigenvalue-minimisations  : 12660
 total energy-change (2. order) : 0.4384365E-01  (-0.5566930E-01)
 number of electron      80.0000001 magnetization 
 augmentation part       17.5533660 magnetization 

 Broyden mixing:
  rms(total) = 0.11851E+00    rms(broyden)= 0.11851E+00
  rms(prec ) = 0.12069E+00
  weight for this iteration     100.00

 eigenvalues of (default mixing * dielectric matrix)
  average eigenvalue GAMMA=   4.3932
  8.4932  1.1194  3.5669

 Free energy of the ion-electron system (eV)
  ---------------------------------------------------
  alpha Z        PSCENC =       137.28279626
  Ewald energy   TEWEN  =     -5467.32054453
  -Hartree energ DENC   =     -2051.04359081
  -exchange      EXHF   =         0.00000000
  -V(xc)+E(xc)   XCENC  =        38.76281169
  PAW double counting   =      7254.48215602    -7031.21208418
  entropy T*S    EENTRO =        -0.00000000
  eigenvalues    EBANDS =      -450.58624494
  atomic energy  EATOM  =      7539.54482681
  Solvation  Ediel_sol  =         0.00000000
  ---------------------------------------------------
  free energy    TOTEN  =       -30.08987369 eV

  energy without entropy =      -30.08987369  energy(sigma->0) =      -30.08987369


--------------------------------------------------------------------------------------------------------




----------------------------------------- Iteration    1(   9)  ---------------------------------------


    POTLOK:  cpu time    0.0330: real time    0.0342
    SETDIJ:  cpu time    0.0640: real time    0.0642
     EDDAV:  cpu time   10.7004: real time   10.7246
       DOS:  cpu time    0.0020: real time    0.0017
    CHARGE:  cpu time    0.5549: real time    0.5559
    MIXING:  cpu time    0.0020: real time    0.0016
    --------------------------------------------
      LOOP:  cpu time   11.3593: real time   11.4075

 eigenvalue-minimisations  : 13740
 total energy-change (2. order) :-0.2829957E-02  (-0.2613492E-02)
 number of electron      80.0000001 magnetization 
 augmentation part       17.5670308 magnetization 

 Broyden mixing:
  rms(total) = 0.76831E-01    rms(broyden)= 0.76831E-01
  rms(prec ) = 0.78200E-01
  weight for this iteration     100.00

 eigenvalues of (default mixing * dielectric matrix)
  average eigenvalue GAMMA=   4.1960
  8.8427  1.0459  3.4476  3.4476

 Free energy of the ion-electron system (eV)
  ---------------------------------------------------
  alpha Z        PSCENC =       137.28279626
  Ewald energy   TEWEN  =     -5467.32054453
  -Hartree energ DENC   =     -2049.54585036
  -exchange      EXHF   =         0.00000000
  -V(xc)+E(xc)   XCENC  =        38.78567571
  PAW double counting   =      7300.01370181    -7076.53008060
  entropy T*S    EENTRO =        -0.00000000
  eigenvalues    EBANDS =      -452.32322874
  atomic energy  EATOM  =      7539.54482681
  Solvation  Ediel_sol  =         0.00000000
  ---------------------------------------------------
  free energy    TOTEN  =       -30.09270364 eV

  energy without entropy =      -30.09270364  energy(sigma->0) =      -30.09270364


--------------------------------------------------------------------------------------------------------




----------------------------------------- Iteration    1(  10)  ---------------------------------------


    POTLOK:  cpu time    0.0340: real time    0.0340
    SETDIJ:  cpu time    0.0630: real time    0.0640
     EDDAV:  cpu time    9.3506: real time    9.3726
       DOS:  cpu time    0.0020: real time    0.0017
    CHARGE:  cpu time    0.5539: real time    0.5551
    MIXING:  cpu time    0.0020: real time    0.0015
    --------------------------------------------
      LOOP:  cpu time   10.0085: real time   10.0531

 eigenvalue-minimisations  : 11484
 total energy-change (2. order) :-0.7790380E-03  (-0.2386596E-03)
 number of electron      80.0000001 magnetization 
 augmentation part       17.5630257 magnetization 

 Broyden mixing:
  rms(total) = 0.53658E-01    rms(broyden)= 0.53658E-01
  rms(prec ) = 0.54732E-01
  weight for this iteration     100.00

 eigenvalues of (default mixing * dielectric matrix)
  average eigenvalue GAMMA=   5.6683
 11.1567 11.1567  3.8858  1.0066  1.1360

 Free energy of the ion-electron system (eV)
  ---------------------------------------------------
  alpha Z        PSCENC =       137.28279626
  Ewald energy   TEWEN  =     -5467.32054453
  -Hartree energ DENC   =     -2049.66072862
  -exchange      EXHF   =         0.00000000
  -V(xc)+E(xc)   XCENC  =        38.82935599
  PAW double counting   =      7344.35608200    -7120.88167715
  entropy T*S    EENTRO =        -0.00000000
  eigenvalues    EBANDS =      -452.24359344
  atomic energy  EATOM  =      7539.54482681
  Solvation  Ediel_sol  =         0.00000000
  ---------------------------------------------------
  free energy    TOTEN  =       -30.09348268 eV

  energy without entropy =      -30.09348268  energy(sigma->0) =      -30.09348268


--------------------------------------------------------------------------------------------------------




----------------------------------------- Iteration    1(  11)  ---------------------------------------


    POTLOK:  cpu time    0.0340: real time    0.0341
    SETDIJ:  cpu time    0.0640: real time    0.0642
     EDDAV:  cpu time   11.0683: real time   11.0945
       DOS:  cpu time    0.0020: real time    0.0018
    CHARGE:  cpu time    0.5529: real time    0.5539
    MIXING:  cpu time    0.0020: real time    0.0018
    --------------------------------------------
      LOOP:  cpu time   11.7262: real time   11.7712

 eigenvalue-minimisations  : 13980
 total energy-change (2. order) :-0.5309084E-03  (-0.1081620E-02)
 number of electron      80.0000001 magnetization 
 augmentation part       17.5482519 magnetization 

 Broyden mixing:
  rms(total) = 0.33067E-01    rms(broyden)= 0.33067E-01
  rms(prec ) = 0.34249E-01
  weight for this iteration     100.00

 eigenvalues of (default mixing * dielectric matrix)
  average eigenvalue GAMMA=   4.5040
 11.0606  8.6463  3.9450  1.4257  1.0155  0.9310

 Free energy of the ion-electron system (eV)
  ---------------------------------------------------
  alpha Z        PSCENC =       137.28279626
  Ewald energy   TEWEN  =     -5467.32054453
  -Hartree energ DENC   =     -2050.56968145
  -exchange      EXHF   =         0.00000000
  -V(xc)+E(xc)   XCENC  =        38.90493760
  PAW double counting   =      7381.02093094    -7157.75848695
  entropy T*S    EENTRO =        -0.00000000
  eigenvalues    EBANDS =      -451.19879226
  atomic energy  EATOM  =      7539.54482681
  Solvation  Ediel_sol  =         0.00000000
  ---------------------------------------------------
  free energy    TOTEN  =       -30.09401359 eV

  energy without entropy =      -30.09401359  energy(sigma->0) =      -30.09401359


--------------------------------------------------------------------------------------------------------




----------------------------------------- Iteration    1(  12)  ---------------------------------------


    POTLOK:  cpu time    0.0340: real time    0.0341
    SETDIJ:  cpu time    0.0640: real time    0.0643
     EDDAV:  cpu time    9.3446: real time    9.3664
       DOS:  cpu time    0.0020: real time    0.0017
    CHARGE:  cpu time    0.5529: real time    0.5547
    MIXING:  cpu time    0.0010: real time    0.0013
    --------------------------------------------
      LOOP:  cpu time   10.0025: real time   10.0468

 eigenvalue-minimisations  : 11100
 total energy-change (2. order) : 0.4929921E-03  (-0.1945748E-03)
 number of electron      80.0000001 magnetization 
 augmentation part       17.5517328 magnetization 

 Broyden mixing:
  rms(total) = 0.17904E-01    rms(broyden)= 0.17904E-01
  rms(prec ) = 0.18123E-01
  weight for this iteration     100.00

 eigenvalues of (default mixing * dielectric matrix)
  average eigenvalue GAMMA=   3.9526
 10.8710  8.4788  3.8916  1.8062  1.0000  0.8103  0.8103

 Free energy of the ion-electron system (eV)
  ---------------------------------------------------
  alpha Z        PSCENC =       137.28279626
  Ewald energy   TEWEN  =     -5467.32054453
  -Hartree energ DENC   =     -2050.28883316
  -exchange      EXHF   =         0.00000000
  -V(xc)+E(xc)   XCENC  =        38.90380140
  PAW double counting   =      7394.81555121    -7171.46516730
  entropy T*S    EENTRO =        -0.00000000
  eigenvalues    EBANDS =      -451.56595129
  atomic energy  EATOM  =      7539.54482681
  Solvation  Ediel_sol  =         0.00000000
  ---------------------------------------------------
  free energy    TOTEN  =       -30.09352060 eV

  energy without entropy =      -30.09352060  energy(sigma->0) =      -30.09352060


--------------------------------------------------------------------------------------------------------




----------------------------------------- Iteration    1(  13)  ---------------------------------------


    POTLOK:  cpu time    0.0340: real time    0.0341
    SETDIJ:  cpu time    0.0640: real time    0.0642
     EDDAV:  cpu time    8.0258: real time    8.0443
       DOS:  cpu time    0.0010: real time    0.0017
    --------------------------------------------
      LOOP:  cpu time    8.1288: real time    8.1685

 eigenvalue-minimisations  :  8760
 total energy-change (2. order) :-0.3960580E-04  (-0.8692557E-05)
 number of electron      80.0000001 magnetization 
 augmentation part       17.5517328 magnetization 

 Free energy of the ion-electron system (eV)
  ---------------------------------------------------
  alpha Z        PSCENC =       137.28279626
  Ewald energy   TEWEN  =     -5467.32054453
  -Hartree energ DENC   =     -2050.38138816
  -exchange      EXHF   =         0.00000000
  -V(xc)+E(xc)   XCENC  =        38.90290227
  PAW double counting   =      7393.62923952    -7170.28232043
  entropy T*S    EENTRO =        -0.00000000
  eigenvalues    EBANDS =      -451.46907194
  atomic energy  EATOM  =      7539.54482681
  Solvation  Ediel_sol  =         0.00000000
  ---------------------------------------------------
  free energy    TOTEN  =       -30.09356020 eV

  energy without entropy =      -30.09356020  energy(sigma->0) =      -30.09356020


--------------------------------------------------------------------------------------------------------




 average (electrostatic) potential at core
  the test charge radii are     1.1897  1.1541
  (the norm of the test charge is              1.0000)
       1 -88.6788       2 -88.6788       3 -88.6788       4 -88.6788       5 -92.2025
       6 -92.2025       7 -92.2025       8 -92.2025
 
 
 
 E-fermi :   5.2274     XC(G=0):  -9.0840     alpha+bet :-10.3072


 k-point     1 :       0.0000    0.0000    0.0000
  band No.  band energies     occupation 
      1     -11.6811      2.00000
      2     -11.6534      2.00000
      3     -11.6532      2.00000
      4     -11.6360      2.00000
      5     -11.6337      2.00000
      6     -11.6333      2.00000
      7     -11.6321      2.00000
      8     -11.6320      2.00000
      9     -11.6293      2.00000
     10     -11.6287      2.00000
     11     -11.6286      2.00000
     12     -11.6281      2.00000
     13     -11.6277      2.00000
     14     -11.6241      2.00000
     15     -11.6190      2.00000
     16     -11.6189      2.00000
     17     -11.6176      2.00000
     18     -11.6175      2.00000
     19     -11.6080      2.00000
     20     -11.6067      2.00000
     21      -6.6187      2.00000
     22      -5.9925      2.00000
     23      -5.9896      2.00000
     24      -5.1101      2.00000
     25      -2.2072      2.00000
     26      -1.8013      2.00000
     27      -1.7994      2.00000
     28      -0.7039      2.00000
     29       0.8880      2.00000
     30       2.4679      2.00000
     31       2.5028      2.00000
     32       3.0718      2.00000
     33       3.0738      2.00000
     34       3.1053      2.00000
     35       3.1074      2.00000
     36       3.7672      2.00000
     37       3.7693      2.00000
     38       3.8267      2.00000
     39       3.8472      2.00000
     40       3.8578      2.00000
     41       7.5506      0.00000
     42       7.5521      0.00000
     43       8.5109      0.00000
     44       9.0253      0.00000
     45       9.0296      0.00000
     46       9.0416      0.00000
     47       9.2550      0.00000
     48       9.2607      0.00000

 k-point     2 :       0.2500    0.0000    0.0000
  band No.  band energies     occupation 
      1     -11.6687      2.00000
      2     -11.6486      2.00000
      3     -11.6484      2.00000
      4     -11.6382      2.00000
      5     -11.6375      2.00000
      6     -11.6375      2.00000
      7     -11.6358      2.00000
      8     -11.6317      2.00000
      9     -11.6288      2.00000
     10     -11.6286      2.00000
     11     -11.6274      2.00000
     12     -11.6273      2.00000
     13     -11.6244      2.00000
     14     -11.6225      2.00000
     15     -11.6194      2.00000
     16     -11.6193      2.00000
     17     -11.6148      2.00000
     18     -11.6147      2.00000
     19     -11.6136      2.00000
     20     -11.6096      2.00000
     21      -6.2927      2.00000
     22      -5.7192      2.00000
     23      -5.7168      2.00000
     24      -5.0244      2.00000
     25      -2.7852      2.00000
     26      -2.5436      2.00000
     27      -2.5416      2.00000
     28      -1.5437      2.00000
     29       1.2480      2.00000
     30       2.9734      2.00000
     31       3.1217      2.00000
     32       3.3400      2.00000
     33       3.5478      2.00000
     34       3.5494      2.00000
     35       3.6098      2.00000
     36       3.6110      2.00000
     37       4.1843      2.00000
     38       4.1847      2.00000
     39       4.2128      2.00000
     40       4.5349      2.00000
     41       6.8547      0.00000
     42       6.8576      0.00000
     43       7.2177      0.00000
     44       7.4724      0.00000
     45       7.7603      0.00000
     46       7.7631      0.00000
     47       7.8533      0.00000
     48       7.8538      0.00000

 k-point     3 :       0.5000    0.0000    0.0000
  band No.  band energies     occupation 
      1     -11.6481      2.00000
      2     -11.6481      2.00000
      3     -11.6451      2.00000
      4     -11.6451      2.00000
      5     -11.6449      2.00000
      6     -11.6449      2.00000
      7     -11.6412      2.00000
      8     -11.6412      2.00000
      9     -11.6265      2.00000
     10     -11.6265      2.00000
     11     -11.6236      2.00000
     12     -11.6236      2.00000
     13     -11.6185      2.00000
     14     -11.6185      2.00000
     15     -11.6168      2.00000
     16     -11.6168      2.00000
     17     -11.6146      2.00000
     18     -11.6146      2.00000
     19     -11.6134      2.00000
     20     -11.6134      2.00000
     21      -5.4752      2.00000
     22      -5.4752      2.00000
     23      -5.3132      2.00000
     24      -5.3132      2.00000
     25      -3.3334      2.00000
     26      -3.3334      2.00000
     27      -2.7523      2.00000
     28      -2.7523      2.00000
     29       2.2126      2.00000
     30       2.2126      2.00000
     31       4.1085      2.00000
     32       4.1085      2.00000
     33       4.2701      2.00000
     34       4.2701      2.00000
     35       4.2785      2.00000
     36       4.2785      2.00000
     37       4.4879      2.00000
     38       4.4879      2.00000
     39       5.0112      2.00000
     40       5.0112      2.00000
     41       5.8439      0.00000
     42       5.8439      0.00000
     43       6.4017      0.00000
     44       6.4017      0.00000
     45       6.4154      0.00000
     46       6.4154      0.00000
     47       6.7080      0.00000
     48       6.7080      0.00000

 k-point     4 :       0.0000    0.0909    0.0000
  band No.  band energies     occupation 
      1     -11.6792      2.00000
      2     -11.6526      2.00000
      3     -11.6524      2.00000
      4     -11.6348      2.00000
      5     -11.6341      2.00000
      6     -11.6339      2.00000
      7     -11.6311      2.00000
      8     -11.6311      2.00000
      9     -11.6305      2.00000
     10     -11.6304      2.00000
     11     -11.6287      2.00000
     12     -11.6276      2.00000
     13     -11.6270      2.00000
     14     -11.6253      2.00000
     15     -11.6182      2.00000
     16     -11.6182      2.00000
     17     -11.6178      2.00000
[...]
     18     -11.6160      2.00000
     19     -11.6136      2.00000
     20     -11.6135      2.00000
     21      -5.8381      2.00000
     22      -5.7905      2.00000
     23      -5.1937      2.00000
     24      -5.1607      2.00000
     25      -3.1418      2.00000
     26      -3.1140      2.00000
     27      -2.5593      2.00000
     28      -2.4529      2.00000
     29       2.3430      2.00000
     30       2.6195      2.00000
     31       3.5289      2.00000
     32       3.5532      2.00000
     33       3.6041      2.00000
     34       3.7679      2.00000
     35       3.8382      2.00000
     36       3.9072      2.00000
     37       4.2499      2.00000
     38       4.2916      2.00000
     39       4.7545      2.00000
     40       4.7915      2.00000
     41       6.3589      0.00000
     42       6.3626      0.00000
     43       6.7269      0.00000
     44       6.7289      0.00000
     45       7.1552      0.00000
     46       7.2844      0.00000
     47       7.3892      0.00000
     48       7.4599      0.00000

 k-point   104 :       0.2500    0.3636    0.4545
  band No.  band energies     occupation 
      1     -11.6627      2.00000
      2     -11.6609      2.00000
      3     -11.6577      2.00000
      4     -11.6565      2.00000
      5     -11.6367      2.00000
      6     -11.6358      2.00000
      7     -11.6344      2.00000
      8     -11.6329      2.00000
      9     -11.6302      2.00000
     10     -11.6290      2.00000
     11     -11.6250      2.00000
     12     -11.6243      2.00000
     13     -11.6168      2.00000
     14     -11.6166      2.00000
     15     -11.6163      2.00000
     16     -11.6159      2.00000
     17     -11.6132      2.00000
     18     -11.6131      2.00000
     19     -11.6115      2.00000
     20     -11.6106      2.00000
     21      -5.5870      2.00000
     22      -5.5440      2.00000
     23      -5.0714      2.00000
     24      -5.0530      2.00000
     25      -2.9793      2.00000
     26      -2.9360      2.00000
     27      -2.5181      2.00000
     28      -2.4150      2.00000
     29       1.6420      2.00000
     30       1.7047      2.00000
     31       2.6055      2.00000
     32       2.6867      2.00000
     33       2.7721      2.00000
     34       2.8865      2.00000
     35       2.9616      2.00000
     36       3.0133      2.00000
     37       3.5498      2.00000
     38       3.8156      2.00000
     39       3.9792      2.00000
     40       4.0631      2.00000
     41       7.2577      0.00000
     42       7.2900      0.00000
     43       7.6200      0.00000
     44       7.9852      0.00000
     45       8.2437      0.00000
     46       8.4196      0.00000
     47       8.5233      0.00000
     48       8.9311      0.00000

 k-point   105 :       0.5000    0.3636    0.4545
  band No.  band energies     occupation 
      1     -11.6712      2.00000
      2     -11.6712      2.00000
      3     -11.6693      2.00000
      4     -11.6693      2.00000
      5     -11.6317      2.00000
      6     -11.6317      2.00000
      7     -11.6311      2.00000
      8     -11.6311      2.00000
      9     -11.6302      2.00000
     10     -11.6302      2.00000
     11     -11.6296      2.00000
     12     -11.6296      2.00000
     13     -11.6130      2.00000
     14     -11.6130      2.00000
     15     -11.6117      2.00000
     16     -11.6117      2.00000
     17     -11.6090      2.00000
     18     -11.6090      2.00000
     19     -11.6090      2.00000
     20     -11.6090      2.00000
     21      -5.1191      2.00000
     22      -5.1191      2.00000
     23      -5.0985      2.00000
     24      -5.0985      2.00000
     25      -2.6750      2.00000
     26      -2.6750      2.00000
     27      -2.5922      2.00000
     28      -2.5922      2.00000
     29       1.3720      2.00000
     30       1.3720      2.00000
     31       1.4350      2.00000
     32       1.4350      2.00000
     33       2.4475      2.00000
     34       2.4475      2.00000
     35       2.5460      2.00000
     36       2.5460      2.00000
     37       3.1671      2.00000
     38       3.1671      2.00000
     39       3.4462      2.00000
     40       3.4462      2.00000
     41       8.2483      0.00000
     42       8.2483      0.00000
     43       8.6497      0.00000
     44       8.6497      0.00000
     45       9.1995      0.00000
     46       9.1995      0.00000
     47       9.2574      0.00000
     48       9.2574      0.00000

 k-point   106 :       0.0000    0.4545    0.4545
  band No.  band energies     occupation 
      1     -11.6498      2.00000
      2     -11.6491      2.00000
      3     -11.6452      2.00000
      4     -11.6451      2.00000
      5     -11.6440      2.00000
      6     -11.6436      2.00000
      7     -11.6431      2.00000
      8     -11.6425      2.00000
      9     -11.6251      2.00000
     10     -11.6248      2.00000
     11     -11.6239      2.00000
     12     -11.6233      2.00000
     13     -11.6177      2.00000
     14     -11.6170      2.00000
     15     -11.6155      2.00000
     16     -11.6155      2.00000
     17     -11.6151      2.00000
     18     -11.6150      2.00000
     19     -11.6149      2.00000
     20     -11.6145      2.00000
     21      -5.5447      2.00000
     22      -5.5105      2.00000
     23      -5.2895      2.00000
     24      -5.2824      2.00000
     25      -3.1698      2.00000
     26      -3.1032      2.00000
     27      -2.9470      2.00000
     28      -2.8541      2.00000
     29       2.7130      2.00000
     30       2.9839      2.00000
     31       3.1215      2.00000
     32       3.3828      2.00000
     33       3.9755      2.00000
     34       4.0134      2.00000
     35       4.2841      2.00000
     36       4.2879      2.00000
     37       4.3444      2.00000
     38       4.4075      2.00000
     39       4.7782      2.00000
     40       4.8064      2.00000
     41       6.1223      0.00000
     42       6.2002      0.00000
     43       6.4984      0.00000
     44       6.5066      0.00000
     45       6.5423      0.00000
     46       6.6255      0.00000
     47       6.7782      0.00000
     48       6.8574      0.00000

 k-point   107 :       0.2500    0.4545    0.4545
  band No.  band energies     occupation 
      1     -11.6632      2.00000
      2     -11.6618      2.00000
      3     -11.6615      2.00000
      4     -11.6603      2.00000
      5     -11.6355      2.00000
      6     -11.6347      2.00000
      7     -11.6344      2.00000
      8     -11.6333      2.00000
      9     -11.6295      2.00000
     10     -11.6284      2.00000
     11     -11.6277      2.00000
     12     -11.6268      2.00000
     13     -11.6154      2.00000
     14     -11.6151      2.00000
     15     -11.6147      2.00000
     16     -11.6145      2.00000
     17     -11.6111      2.00000
     18     -11.6111      2.00000
     19     -11.6110      2.00000
     20     -11.6107      2.00000
     21      -5.3458      2.00000
     22      -5.3149      2.00000
     23      -5.1499      2.00000
     24      -5.1400      2.00000
     25      -2.9270      2.00000
     26      -2.8562      2.00000
     27      -2.7564      2.00000
     28      -2.6652      2.00000
     29       1.8773      2.00000
     30       1.9389      2.00000
     31       2.3222      2.00000
     32       2.3802      2.00000
     33       2.9029      2.00000
     34       2.9462      2.00000
     35       3.0235      2.00000
     36       3.1553      2.00000
     37       3.2693      2.00000
     38       3.4411      2.00000
     39       3.5055      2.00000
     40       3.5307      2.00000
     41       7.8986      0.00000
     42       7.9228      0.00000
     43       7.9397      0.00000
     44       8.2567      0.00000
     45       8.2691      0.00000
     46       8.5855      0.00000
     47       8.6294      0.00000
     48       8.6522      0.00000

 k-point   108 :       0.5000    0.4545    0.4545
  band No.  band energies     occupation 
      1     -11.6751      2.00000
      2     -11.6751      2.00000
      3     -11.6731      2.00000
      4     -11.6731      2.00000
      5     -11.6328      2.00000
      6     -11.6328      2.00000
      7     -11.6314      2.00000
      8     -11.6314      2.00000
      9     -11.6295      2.00000
     10     -11.6295      2.00000
     11     -11.6281      2.00000
     12     -11.6281      2.00000
     13     -11.6126      2.00000
     14     -11.6126      2.00000
     15     -11.6111      2.00000
     16     -11.6111      2.00000
     17     -11.6072      2.00000
     18     -11.6072      2.00000
     19     -11.6072      2.00000
     20     -11.6072      2.00000
     21      -5.0589      2.00000
     22      -5.0589      2.00000
     23      -5.0388      2.00000
     24      -5.0388      2.00000
     25      -2.5769      2.00000
     26      -2.5769      2.00000
     27      -2.4936      2.00000
     28      -2.4936      2.00000
     29       1.0751      2.00000
     30       1.0751      2.00000
     31       1.1392      2.00000
     32       1.1392      2.00000
     33       2.1560      2.00000
     34       2.1560      2.00000
     35       2.2557      2.00000
     36       2.2557      2.00000
     37       3.2085      2.00000
     38       3.2085      2.00000
     39       3.4883      2.00000
     40       3.4883      2.00000
     41       8.3606      0.00000
     42       8.3606      0.00000
     43       8.7926      0.00000
     44       8.7926      0.00000
     45       9.0420      0.00000
     46       9.0420      0.00000
     47       9.2022      0.00000
     48       9.2022      0.00000


--------------------------------------------------------------------------------------------------------


 soft charge-density along one line, spin component           1
         0         1         2         3         4         5         6         7         8         9
 total charge-density along one line
 
 pseudopotential strength for first ion, spin component:           1
 51.566  56.105  -0.001  -0.000   0.000  -0.001  -0.000   0.000
 56.105  61.047  -0.001  -0.000   0.000  -0.001  -0.000   0.000
 -0.001  -0.001  12.709  -0.000  -0.000  18.320  -0.000  -0.000
 -0.000  -0.000  -0.000  12.709  -0.000  -0.000  18.320  -0.000
  0.000   0.000  -0.000  -0.000  12.709  -0.000  -0.000  18.320
 -0.001  -0.001  18.320  -0.000  -0.000  26.416  -0.000  -0.000
 -0.000  -0.000  -0.000  18.320  -0.000  -0.000  26.416  -0.000
  0.000   0.000  -0.000  -0.000  18.320  -0.000  -0.000  26.416
 -0.000  -0.000   0.000   0.000  -0.000   0.000   0.000  -0.000
 -0.000  -0.000  -0.000  -0.000   0.000  -0.000  -0.000   0.000
 -0.000  -0.000   0.000  -0.000  -0.000   0.000  -0.000  -0.000
 -0.000  -0.000   0.000  -0.000  -0.000   0.000  -0.000  -0.000
  0.000   0.000   0.000   0.000  -0.000   0.000   0.000  -0.000
 total augmentation occupancy for first ion, spin component:           1
  4.878  -3.120   0.024   0.007   0.000  -0.008  -0.002  -0.000   0.000   0.000   0.002   0.000  -0.002
 -3.120   3.239  -0.021  -0.006  -0.000   0.007   0.002   0.000  -0.000  -0.000  -0.002   0.000   0.001
  0.024  -0.021   3.050  -0.002   0.000  -0.726   0.001  -0.000   0.000  -0.000   0.001  -0.000   0.000
  0.007  -0.006  -0.002   3.051  -0.000   0.001  -0.726   0.000   0.000  -0.001  -0.000  -0.000  -0.000
  0.000  -0.000   0.000  -0.000   3.055  -0.000   0.000  -0.728  -0.002  -0.000   0.000  -0.000  -0.000
 -0.008   0.007  -0.726   0.001  -0.000   0.221  -0.000   0.000  -0.000   0.000  -0.000   0.000  -0.000
 -0.002   0.002   0.001  -0.726   0.000  -0.000   0.221  -0.000  -0.000   0.000   0.000   0.000   0.000
 -0.000   0.000  -0.000   0.000  -0.728   0.000  -0.000   0.222   0.001   0.000  -0.000   0.000   0.000
  0.000  -0.000   0.000   0.000  -0.002  -0.000  -0.000   0.001   0.009   0.000  -0.000  -0.000   0.000
  0.000  -0.000  -0.000  -0.001  -0.000   0.000   0.000   0.000   0.000   0.002  -0.000   0.000   0.000
  0.002  -0.002   0.001  -0.000   0.000  -0.000   0.000  -0.000  -0.000  -0.000   0.009   0.000  -0.000
  0.000   0.000  -0.000  -0.000  -0.000   0.000   0.000   0.000  -0.000   0.000   0.000   0.002  -0.000
 -0.002   0.001   0.000  -0.000  -0.000  -0.000   0.000   0.000   0.000   0.000  -0.000  -0.000   0.002


------------------------ aborting loop because EDIFF is reached ----------------------------------------


 


 total charge     
 
# of ion     s       p       d       tot
----------------------------------------
  1        1.373   1.992   0.015   3.380
  2        1.373   1.992   0.015   3.380
  3        1.373   1.992   0.015   3.380
  4        1.373   1.992   0.015   3.380
  5        1.462   0.551   9.830  11.843
  6        1.462   0.551   9.830  11.843
  7        1.462   0.551   9.830  11.843
  8        1.462   0.551   9.830  11.843
------------------------------------------------
tot       11.341  10.169  39.382  60.892
 
    CHARGE:  cpu time    0.5369: real time    0.5386
    FORLOC:  cpu time    0.0110: real time    0.0114
    FORNL :  cpu time    2.6496: real time    2.6535
    STRESS:  cpu time    5.0482: real time    5.0625
    FORCOR:  cpu time    0.0370: real time    0.0380
    FORHAR:  cpu time    0.0120: real time    0.0117
    MIXING:  cpu time    0.0020: real time    0.0015
    OFIELD:  cpu time    0.0000: real time    0.0007

  FORCE on cell =-STRESS in cart. coord.  units (eV):
  Direction    XX          YY          ZZ          XY          YZ          ZX
  --------------------------------------------------------------------------------------
  Alpha Z   137.28280   137.28280   137.28280
  Ewald   -1820.79257 -1822.56612 -1823.96894    -0.00000     0.00000    -0.00000
  Hartree   683.58709   683.83886   682.62029    -0.00000    -0.00000    -0.00000
  E(xc)    -360.87938  -360.89200  -360.89397     0.00000    -0.00000    -0.00000
  Local    -515.22061  -514.06694  -511.28448     0.00000    -0.00000     0.00000
  n-local   716.40050   716.61516   716.47502     1.49138     0.00916     0.01052
  augment   386.44209   386.37090   386.39208     0.00000     0.00000     0.00000
  Kinetic   773.08093   773.42692   773.23525     8.89002    -0.11114    -0.08064
  Fock        0.00000     0.00000     0.00000     0.00000     0.00000     0.00000
  -------------------------------------------------------------------------------------
  Total      -0.09916     0.00958    -0.14196     0.00000     0.00000     0.00000
  in kB      -0.56086     0.05418    -0.80294     0.00000     0.00000     0.00000
  external pressure =       -0.44 kB  Pullay stress =        0.00 kB


 VOLUME and BASIS-vectors are now :
 -----------------------------------------------------------------------------
  energy-cutoff  :      520.00
  volume of cell :      283.26
      direct lattice vectors                 reciprocal lattice vectors
     4.652005925 -0.000000000  0.000000000     0.214961033 -0.000000000  0.000000000
     0.000000000  4.634106391  0.000000000     0.000000000  0.215791334  0.000000000
     0.000000000  0.000000000 13.139452401     0.000000000  0.000000000  0.076106672

  length of vectors
     4.652005925  4.634106391 13.139452401     0.214961033  0.215791334  0.076106672


 FORCES acting on ions
    electron-ion (+dipol)            ewald-force                    non-local-force                 convergence-correction
 -----------------------------------------------------------------------------------------------
   0.160E-11 -.731E+00 -.343E+00   -.317E-13 0.772E+00 0.354E+00   -.135E-16 -.413E-01 -.137E-01   0.213E-14 0.925E-03 0.326E-02
   0.160E-11 0.731E+00 -.343E+00   -.276E-13 -.772E+00 0.354E+00   0.108E-16 0.413E-01 -.137E-01   0.239E-14 -.925E-03 0.326E-02
   0.157E-11 0.731E+00 0.343E+00   -.347E-13 -.772E+00 -.354E+00   0.135E-16 0.413E-01 0.137E-01   -.911E-15 -.925E-03 -.326E-02
   0.157E-11 -.731E+00 0.343E+00   0.451E-13 0.772E+00 -.354E+00   -.108E-16 -.413E-01 0.137E-01   -.136E-14 0.925E-03 -.326E-02
   0.338E-11 0.715E+00 0.538E+00   -.513E-13 -.824E+00 -.543E+00   0.277E-16 0.106E+00 0.164E-01   -.462E-12 -.211E-02 -.118E-01
   0.339E-11 -.715E+00 0.538E+00   0.377E-14 0.824E+00 -.543E+00   -.286E-16 -.106E+00 0.164E-01   -.469E-12 0.211E-02 -.118E-01
   0.400E-11 -.715E+00 -.538E+00   0.675E-13 0.824E+00 0.543E+00   -.277E-16 -.106E+00 -.164E-01   -.491E-12 0.211E-02 0.118E-01
   0.399E-11 0.715E+00 -.538E+00   0.359E-13 -.824E+00 0.543E+00   0.286E-16 0.106E+00 -.164E-01   -.496E-12 -.211E-02 0.118E-01
 -----------------------------------------------------------------------------------------------
   0.211E-10 -.197E-09 0.166E-09   0.698E-14 -.400E-14 -.999E-14   0.533E-21 0.000E+00 -.347E-17   -.192E-11 -.227E-11 -.776E-12
 
 
 POSITION                                       TOTAL-FORCE (eV/Angst)
 -----------------------------------------------------------------------------------
      1.16300      1.16123     11.49743         0.000000      0.000847     -0.000239
      1.16300      1.15583      4.92770        -0.000000     -0.000847     -0.000239
      3.48900      3.47288      1.64203        -0.000000     -0.000847      0.000239
      3.48900      3.47828      8.21175         0.000000      0.000847      0.000239
      1.16300      1.16848      8.21374        -0.000000     -0.003789     -0.000495
      1.16300      1.14858      1.64401         0.000000      0.003789     -0.000495
      3.48900      3.46563      4.92571         0.000000      0.003789      0.000495
      3.48900      3.48553     11.49544        -0.000000     -0.003789      0.000495
 -----------------------------------------------------------------------------------
    total drift:                                0.000000     -0.000000      0.000000


--------------------------------------------------------------------------------------------------------



  FREE ENERGIE OF THE ION-ELECTRON SYSTEM (eV)
  ---------------------------------------------------
  free  energy   TOTEN  =       -30.09356020 eV

  energy  without entropy=      -30.09356020  energy(sigma->0) =      -30.09356020
 


--------------------------------------------------------------------------------------------------------


    POTLOK:  cpu time    0.1000: real time    0.1009


--------------------------------------------------------------------------------------------------------


     LOOP+:  cpu time  147.3956: real time  148.0592
    4ORBIT:  cpu time    0.0000: real time    0.0000
 


 total charge     
 
# of ion     s       p       d       tot
----------------------------------------
  1        1.373   1.992   0.015   3.380
  2        1.373   1.992   0.015   3.380
  3        1.373   1.992   0.015   3.380
  4        1.373   1.992   0.015   3.380
  5        1.462   0.551   9.830  11.843
  6        1.462   0.551   9.830  11.843
  7        1.462   0.551   9.830  11.843
  8        1.462   0.551   9.830  11.843
------------------------------------------------
tot       11.341  10.169  39.382  60.892
 

 total amount of memory used by VASP on root node   127303. kBytes
========================================================================

   base      :      30000. kBytes
   nonl-proj :      59590. kBytes
   fftplans  :       7146. kBytes
   grid      :       3663. kBytes
   one-center:         31. kBytes
   wavefun   :      26873. kBytes
 
  
  
 General timing and accounting informations for this job:
 ========================================================
  
                  Total CPU time used (sec):      175.294
                            User time (sec):      156.882
                          System time (sec):       18.412
                         Elapsed time (sec):      176.478
  
                   Maximum memory used (kb):      218408.
                   Average memory used (kb):           0.
  
                          Minor page faults:        78662
                          Major page faults:            2
                 Voluntary context switches:         2156
