 vasp.6.2.0 18Jan21 (build Apr 16 2021 14:15:45) complex                        
  
 executed on             LinuxIFC date 2021.07.21  19:29:16
 running on   24 total cores
 distrk:  each k-point on   24 cores,    1 groups
 distr:  one band on NCORE=   6 cores,    4 groups


--------------------------------------------------------------------------------------------------------


 INCAR:
   SYSTEM = matgen-scf
   ISTART = 0
   ISPIN = 2
   ISYM = 2
   LREAL = .F
   ENCUT = 520
   PREC = Accurate
   LWAVE = True
   LCHARG = True
   ADDGRID = True
   NPAR = 4
   NBLOCK = 1
   INIWAV = 1
   ISMEAR = 0
   SIGMA = 0.05
   ALGO = Normal
   NELM = 140
   NELMIN = 6
   EDIFF = 1E-04
   NSW = 0
   IBRION = -1
   ISIF = 2
   EDIFFG = -1E-02
   POTIM = 0.05
   LCORR = .T.
   WEIMIN = 0
   LAECHG = .T.
   LORBIT = 11
   LDAU = True
   LDAUTYPE = 2
   LDAUL = 2 3 -1
   LDAUU = 5.0 7.5 0
   LDAUJ = 0 0 0
   LMAXMIX = 6

 POTCAR:    PAW_PBE Co 02Aug2007                  
 POTCAR:    PAW_PBE La 06Sep2000                  
 POTCAR:    PAW_PBE Si 05Jan2001                  
 -----------------------------------------------------------------------------
|                                                                             |
|           W    W    AA    RRRRR   N    N  II  N    N   GGGG   !!!           |
|           W    W   A  A   R    R  NN   N  II  NN   N  G    G  !!!           |
|           W    W  A    A  R    R  N N  N  II  N N  N  G       !!!           |
|           W WW W  AAAAAA  RRRRR   N  N N  II  N  N N  G  GGG   !            |
|           WW  WW  A    A  R   R   N   NN  II  N   NN  G    G                |
|           W    W  A    A  R    R  N    N  II  N    N   GGGG   !!!           |
|                                                                             |
|     You use a magnetic or noncollinear calculation, but did not specify     |
|     the initial magnetic moment with the MAGMOM tag. Note that a            |
|     default of 1 will be used for all atoms. This ferromagnetic setup       |
|     may break the symmetry of the crystal, in particular it may rule        |
|     out finding an antiferromagnetic solution. Thence, we recommend         |
|     setting the initial magnetic moment manually or verifying carefully     |
|     that this magnetic setup is desired.                                    |
|                                                                             |
 -----------------------------------------------------------------------------

 POTCAR:    PAW_PBE Co 02Aug2007                  
   VRHFIN =Co: d8 s1                                                                                
   LEXCH  = PE                                                                                      
   EATOM  =   813.3670 eV,   59.7808 Ry                                                             
                                                                                                    
   TITEL  = PAW_PBE Co 02Aug2007                                                                    
   LULTRA =        F    use ultrasoft PP ?                                                          
   IUNSCR =        1    unscreen: 0-lin 1-nonlin 2-no                                               
   RPACOR =    2.000    partial core radius                                                         
   POMASS =   58.933; ZVAL   =    9.000    mass and valenz                                          
   RCORE  =    2.300    outmost cutoff radius                                                       
   RWIGS  =    2.460; RWIGS  =    1.302    wigner-seitz radius (au A)                               
   ENMAX  =  267.968; ENMIN  =  200.976 eV                                                          
   RCLOC  =    1.203    cutoff for local pot                                                        
   LCOR   =        T    correct aug charges                                                         
   LPAW   =        T    paw PP                                                                      
   EAUG   =  477.818                                                                                
   DEXC   =    0.000                                                                                
   RMAX   =    2.360    core radius for proj-oper                                                   
   RAUG   =    1.300    factor for augmentation sphere                                              
   RDEP   =    2.393    radius for radial grids                                                     
   RDEPT  =    1.864    core radius for aug-charge                                                  
                                                                                                    
   Atomic configuration                                                                             
    9 entries                                                                                       
     n  l   j            E        occ.                                                              
     1  0  0.50     -7587.6674   2.0000                                                             
     2  0  0.50      -893.6084   2.0000                                                             
     2  1  1.50      -764.5805   6.0000                                                             
     3  0  0.50       -97.5973   2.0000                                                             
     3  1  1.50       -60.9648   6.0000                                                             
     3  2  2.50        -4.2382   8.0000                                                             
     4  0  0.50        -4.3746   1.0000                                                             
     4  1  1.50        -4.0817   0.0000                                                             
     4  3  2.50        -1.3606   0.0000                                                             
   Description                                                                                      
     l       E           TYP  RCUT    TYP  RCUT                                                     
     2     -4.2382362     23  2.300                                                                 
     2     -5.5988188     23  2.300                                                                 
     0     -4.3745797     23  2.300                                                                 
     0      5.7660125     23  2.300                                                                 
     1     -2.7211652     23  2.300                                                                 
     1     16.9860234     23  2.300                                                                 
  local pseudopotential read in
  partial core-charges read in
  partial kinetic energy density read in
  atomic valenz-charges read in
  non local Contribution for L=           2  read in
    real space projection operators read in
  non local Contribution for L=           2  read in
    real space projection operators read in
  non local Contribution for L=           0  read in
    real space projection operators read in
  non local Contribution for L=           0  read in
    real space projection operators read in
  non local Contribution for L=           1  read in
    real space projection operators read in
  non local Contribution for L=           1  read in
    real space projection operators read in
    PAW grid and wavefunctions read in
 
   number of l-projection  operators is LMAX  =           6
   number of lm-projection operators is LMMAX =          18
 
 POTCAR:    PAW_PBE La 06Sep2000                  
   VRHFIN =La : [core=Kr4d]                                                                         
   LEXCH  = PE                                                                                      
   EATOM  =   865.9763 eV,   63.6475 Ry                                                             
                                                                                                    
   TITEL  = PAW_PBE La 06Sep2000                                                                    
   LULTRA =        F    use ultrasoft PP ?                                                          
   IUNSCR =        1    unscreen: 0-lin 1-nonlin 2-no                                               
   RPACOR =    2.300    partial core radius                                                         
   POMASS =  138.900; ZVAL   =   11.000    mass and valenz                                          
   RCORE  =    2.800    outmost cutoff radius                                                       
   RWIGS  =    2.900; RWIGS  =    1.535    wigner-seitz radius (au A)                               
   ENMAX  =  219.292; ENMIN  =  164.469 eV                                                          
   RCLOC  =    1.601    cutoff for local pot                                                        
   LCOR   =        T    correct aug charges                                                         
   LPAW   =        T    paw PP                                                                      
   EAUG   =  583.575                                                                                
   DEXC   =    0.000                                                                                
   RMAX   =    2.853    core radius for proj-oper                                                   
   RAUG   =    1.300    factor for augmentation sphere                                              
   RDEP   =    2.802    radius for radial grids                                                     
   RDEPT  =    2.156    core radius for aug-charge                                                  
                                                                                                    
   Atomic configuration                                                                             
   14 entries                                                                                       
     n  l   j            E        occ.                                                              
     1  0  0.50    -38741.0879   2.0000                                                             
     2  0  0.50     -6166.6801   2.0000                                                             
     2  1  1.50     -5526.1593   6.0000                                                             
     3  0  0.50     -1319.0200   2.0000                                                             
     3  1  1.50     -1114.5963   6.0000                                                             
     3  2  2.50      -821.1793  10.0000                                                             
     4  0  0.50      -266.3851   2.0000                                                             
     4  1  1.50      -199.9276   6.0000                                                             
     4  2  2.50      -103.8239  10.0000                                                             
     5  0  0.50       -38.9172   2.0000                                                             
     6  0  0.50        -3.6792   2.0000                                                             
     5  1  1.50       -22.3948   6.0000                                                             
     5  2  2.50        -3.0911   0.9999                                                             
     4  3  2.50        -4.3603   0.0001                                                             
   Description                                                                                      
     l       E           TYP  RCUT    TYP  RCUT                                                     
     0    -38.9171645     23  2.800                                                                 
     0     -3.6792381     23  2.800                                                                 
     1    -22.3948300     23  2.500                                                                 
     1     27.2116520     23  2.500                                                                 
     2     -3.0910934     23  2.500                                                                 
     2      1.0119135     23  2.500                                                                 
     3     -4.3602911     23  2.800                                                                 
     3     -5.7208737     23  2.800                                                                 
  local pseudopotential read in
  partial core-charges read in
  partial kinetic energy density read in
  atomic valenz-charges read in
  non local Contribution for L=           0  read in
    real space projection operators read in
  non local Contribution for L=           0  read in
    real space projection operators read in
  non local Contribution for L=           1  read in
    real space projection operators read in
  non local Contribution for L=           1  read in
    real space projection operators read in
  non local Contribution for L=           2  read in
    real space projection operators read in
  non local Contribution for L=           2  read in
    real space projection operators read in
  non local Contribution for L=           3  read in
    real space projection operators read in
  non local Contribution for L=           3  read in
    real space projection operators read in
    PAW grid and wavefunctions read in
 
   number of l-projection  operators is LMAX  =           8
   number of lm-projection operators is LMMAX =          32
 
 POTCAR:    PAW_PBE Si 05Jan2001                  
   VRHFIN =Si: s2p2                                                                                 
   LEXCH  = PE                                                                                      
   EATOM  =   103.0669 eV,    7.5752 Ry                                                             
                                                                                                    
   TITEL  = PAW_PBE Si 05Jan2001                                                                    
   LULTRA =        F    use ultrasoft PP ?                                                          
   IUNSCR =        1    unscreen: 0-lin 1-nonlin 2-no                                               
   RPACOR =    1.500    partial core radius                                                         
   POMASS =   28.085; ZVAL   =    4.000    mass and valenz                                          
   RCORE  =    1.900    outmost cutoff radius                                                       
   RWIGS  =    2.480; RWIGS  =    1.312    wigner-seitz radius (au A)                               
   ENMAX  =  245.345; ENMIN  =  184.009 eV                                                          
   ICORE  =        2    local potential                                                             
   LCOR   =        T    correct aug charges                                                         
   LPAW   =        T    paw PP                                                                      
   EAUG   =  322.069                                                                                
   DEXC   =    0.000                                                                                
   RMAX   =    1.950    core radius for proj-oper                                                   
   RAUG   =    1.300    factor for augmentation sphere                                              
   RDEP   =    1.993    radius for radial grids                                                     
   RDEPT  =    1.837    core radius for aug-charge                                                  
                                                                                                    
   Atomic configuration                                                                             
    6 entries                                                                                       
     n  l   j            E        occ.                                                              
     1  0  0.50     -1785.8828   2.0000                                                             
     2  0  0.50      -139.4969   2.0000                                                             
     2  1  1.50       -95.5546   6.0000                                                             
     3  0  0.50       -10.8127   2.0000                                                             
     3  1  0.50        -4.0811   2.0000                                                             
     3  2  1.50        -4.0817   0.0000                                                             
   Description                                                                                      
     l       E           TYP  RCUT    TYP  RCUT                                                     
     0    -10.8127223     23  1.900                                                                 
     0     -7.6451159     23  1.900                                                                 
     1     -4.0811372     23  1.900                                                                 
     1      2.4879257     23  1.900                                                                 
     2     -4.0817478      7  1.900                                                                 
  local pseudopotential read in
  partial core-charges read in
  partial kinetic energy density read in
  atomic valenz-charges read in
  non local Contribution for L=           0  read in
    real space projection operators read in
  non local Contribution for L=           0  read in
    real space projection operators read in
  non local Contribution for L=           1  read in
    real space projection operators read in
  non local Contribution for L=           1  read in
    real space projection operators read in
    PAW grid and wavefunctions read in
 
   number of l-projection  operators is LMAX  =           4
   number of lm-projection operators is LMMAX =           8
 
  PAW_PBE Co 02Aug2007                  :
 energy of atom  1       EATOM= -813.3670
 kinetic energy error for atom=    0.0028 (will be added to EATOM!!)
  PAW_PBE La 06Sep2000                  :
 energy of atom  2       EATOM= -865.9763
 kinetic energy error for atom=    0.0009 (will be added to EATOM!!)
  PAW_PBE Si 05Jan2001                  :
 energy of atom  3       EATOM= -103.0669
 kinetic energy error for atom=    0.0005 (will be added to EATOM!!)
 
 
 POSCAR: 624028
  positions in direct lattice
  velocities in cartesian coordinates
 exchange correlation table for  LEXCH =        8
   RHO(1)=    0.500       N(1)  =     2000
   RHO(2)=  100.500       N(2)  =     4000
 


--------------------------------------------------------------------------------------------------------


 ion  position               nearest neighbor table
   1  0.664  0.664  0.327-   4 2.28   3 2.28   3 2.28   4 2.28   5 2.28   2 3.30   2 3.32   2 3.32
                             2 3.32   2 3.32
   2  0.006  0.006  0.011-   5 3.05   5 3.05   5 3.05   5 3.05   3 3.16   4 3.16   3 3.16   4 3.16
                             3 3.22   4 3.22   3 3.22   4 3.22   1 3.30   1 3.32   1 3.32   1 3.32
   3  0.759  0.259  0.519-   1 2.28   1 2.28   5 2.63   5 2.64   4 2.95   4 2.95   4 2.95   4 2.95
                             2 3.16   2 3.16   2 3.22   2 3.22
   4  0.259  0.759  0.519-   1 2.28   1 2.28   5 2.63   5 2.64   3 2.95   3 2.95   3 2.95   3 2.95
                             2 3.16   2 3.16   2 3.22   2 3.22
   5  0.428  0.428  0.854-   1 2.28   3 2.63   4 2.63   4 2.64   3 2.64   2 3.05   2 3.05   2 3.05
                             2 3.05
 
  LATTYP: Found a base centered monoclinic cell.
 ALAT       =     5.9049132765
 B/A-ratio  =     0.9999485163
 C/A-ratio  =     0.9572828716
 COS(beta)  =    -0.5218524980
  
  Lattice vectors:
  
 A1 = (  -4.1752966643,  -0.0001074093,   0.0007819025)
 A2 = (  -0.0001074093,  -4.1752966643,   0.0007819025)
 A3 = (   2.0867697444,   2.0867697444,   4.8211501351)


Analysis of symmetry for initial positions (statically):
=====================================================================
 Subroutine PRICEL returns:
 Original cell was already a primitive cell.
 

 Routine SETGRP: Setting up the symmetry group for a 
 base centered monoclinic supercell.


 Subroutine GETGRP returns: Found  2 space group operations
 (whereof  2 operations were pure point group operations)
 out of a pool of  4 trial point group operations.


The static configuration has the point symmetry C_1h.


Analysis of symmetry for dynamics (positions and initial velocities):
=====================================================================
 Subroutine PRICEL returns:
 Original cell was already a primitive cell.
 

 Routine SETGRP: Setting up the symmetry group for a 
 base centered monoclinic supercell.


 Subroutine GETGRP returns: Found  2 space group operations
 (whereof  2 operations were pure point group operations)
 out of a pool of  4 trial point group operations.


The dynamic configuration has the point symmetry C_1h.


Analysis of structural, dynamic, and magnetic symmetry:
=====================================================================
 Subroutine PRICEL returns:
 Original cell was already a primitive cell.
 

 Routine SETGRP: Setting up the symmetry group for a 
 base centered monoclinic supercell.


 Subroutine GETGRP returns: Found  2 space group operations
 (whereof  2 operations were pure point group operations)
 out of a pool of  4 trial point group operations.


The overall configuration has the point symmetry C_1h.


 Subroutine INISYM returns: Found  2 space group operations
 (whereof  2 operations are pure point group operations),
 and found     1 'primitive' translations


----------------------------------------------------------------------------------------

                                     Primitive cell                                     

  volume of cell :      84.0612

  direct lattice vectors                    reciprocal lattice vectors
    -4.175296664 -0.000107409  0.000781902    -0.239484530  0.000025570  0.103646578
    -0.000107409 -4.175296664  0.000781902     0.000025570 -0.239484530  0.103646578
     2.086769744  2.086769744  4.821150135     0.000038836  0.000038836  0.207385767

  length of vectors
     4.175296739  4.175296739  5.652672338     0.260951057  0.260951057  0.207385774

  position of ions in fractional coordinates (direct lattice)
     0.663790037  0.663790037  0.327240116
     0.005797120  0.005797120  0.010670791
     0.758996212  0.259360160  0.518778800
     0.259360160  0.758996212  0.518778800
     0.427546471  0.427546471  0.853511493

  ion indices of the primitive-cell ions
   primitive index   ion index
                 1           1
                 2           2
                 3           3
                 4           4
                 5           5

----------------------------------------------------------------------------------------

 
 
 KPOINTS: MATGEN KPT                              

Automatic generation of k-mesh.
 Grid dimensions read from file:
 generate k-points for:   13   13   10

 Generating k-lattice:

  Cartesian coordinates                     Fractional coordinates (reciprocal lattice)
    -0.018421887  0.000001967  0.007972814     0.076923077  0.000000000  0.000000000
     0.000001967 -0.018421887  0.007972814     0.000000000  0.076923077  0.000000000
     0.000003884  0.000003884  0.020738577    -0.000000000 -0.000000000  0.100000000

  Length of vectors
     0.020073158  0.020073158  0.020738577

  Shift w.r.t. Gamma in fractional coordinates (k-lattice)
     0.000000000  0.000000000  0.000000000

 
 Subroutine IBZKPT returns following result:
 ===========================================
 
 Found    462 irreducible k-points:
 
 Following reciprocal coordinates:
            Coordinates               Weight
  0.000000  0.000000  0.000000      1.000000
  0.076923 -0.000000 -0.000000      4.000000
  0.153846 -0.000000  0.000000      4.000000
  0.230769 -0.000000  0.000000      4.000000
  0.307692 -0.000000  0.000000      4.000000
  0.384615 -0.000000  0.000000      4.000000
  0.461538  0.000000  0.000000      4.000000
  0.076923  0.076923  0.000000      2.000000
  0.153846  0.076923  0.000000      4.000000
  0.230769  0.076923  0.000000      4.000000
  0.307692  0.076923  0.000000      4.000000
  0.384615  0.076923  0.000000      4.000000
  0.461538  0.076923  0.000000      4.000000
 -0.461538  0.076923 -0.000000      4.000000
 -0.384615  0.076923 -0.000000      4.000000
 -0.307692  0.076923 -0.000000      4.000000
 -0.230769  0.076923 -0.000000      4.000000
 -0.153846  0.076923 -0.000000      4.000000
 -0.076923  0.076923  0.000000      2.000000
  0.153846  0.153846  0.000000      2.000000
  0.230769  0.153846  0.000000      4.000000
  0.307692  0.153846  0.000000      4.000000
  0.384615  0.153846  0.000000      4.000000
  0.461538  0.153846  0.000000      4.000000
 -0.461538  0.153846  0.000000      4.000000
 -0.384615  0.153846 -0.000000      4.000000
 -0.307692  0.153846 -0.000000      4.000000
 -0.230769  0.153846  0.000000      4.000000
 -0.153846  0.153846  0.000000      2.000000
  0.230769  0.230769  0.000000      2.000000
  0.307692  0.230769  0.000000      4.000000
  0.384615  0.230769  0.000000      4.000000
  0.461538  0.230769  0.000000      4.000000
 -0.461538  0.230769 -0.000000      4.000000
 -0.384615  0.230769 -0.000000      4.000000
 -0.307692  0.230769 -0.000000      4.000000
 -0.230769  0.230769  0.000000      2.000000
  0.307692  0.307692  0.000000      2.000000
  0.384615  0.307692  0.000000      4.000000
  0.461538  0.307692  0.000000      4.000000
 -0.461538  0.307692 -0.000000      4.000000
 -0.384615  0.307692 -0.000000      4.000000
 -0.307692  0.307692  0.000000      2.000000
  0.384615  0.384615  0.000000      2.000000
  0.461538  0.384615  0.000000      4.000000
 -0.461538  0.384615  0.000000      4.000000
 -0.384615  0.384615  0.000000      2.000000
  0.461538  0.461538  0.000000      2.000000
 -0.461538  0.461538  0.000000      2.000000
  0.000000  0.000000  0.100000      2.000000
  0.076923 -0.000000  0.100000      4.000000
  0.153846 -0.000000  0.100000      4.000000
  0.230769  0.000000  0.100000      4.000000
  0.307692 -0.000000  0.100000      4.000000
  0.384615 -0.000000  0.100000      4.000000
  0.461538 -0.000000  0.100000      4.000000
 -0.461538  0.000000  0.100000      4.000000
 -0.384615  0.000000  0.100000      4.000000
 -0.307692  0.000000  0.100000      4.000000
 -0.230769 -0.000000  0.100000      4.000000
 -0.153846  0.000000  0.100000      4.000000
 -0.076923  0.000000  0.100000      4.000000
  0.076923  0.076923  0.100000      2.000000
  0.153846  0.076923  0.100000      4.000000
  0.230769  0.076923  0.100000      4.000000
  0.307692  0.076923  0.100000      4.000000
  0.384615  0.076923  0.100000      4.000000
  0.461538  0.076923  0.100000      4.000000
 -0.461538  0.076923  0.100000      4.000000
 -0.384615  0.076923  0.100000      4.000000
 -0.307692  0.076923  0.100000      4.000000
 -0.230769  0.076923  0.100000      4.000000
 -0.153846  0.076923  0.100000      4.000000
 -0.076923  0.076923  0.100000      4.000000
  0.153846  0.153846  0.100000      2.000000
  0.230769  0.153846  0.100000      4.000000
  0.307692  0.153846  0.100000      4.000000
  0.384615  0.153846  0.100000      4.000000
  0.461538  0.153846  0.100000      4.000000
 -0.461538  0.153846  0.100000      4.000000
 -0.384615  0.153846  0.100000      4.000000
 -0.307692  0.153846  0.100000      4.000000
 -0.230769  0.153846  0.100000      4.000000
 -0.153846  0.153846  0.100000      4.000000
 -0.076923  0.153846  0.100000      4.000000
  0.230769  0.230769  0.100000      2.000000
  0.307692  0.230769  0.100000      4.000000
  0.384615  0.230769  0.100000      4.000000
  0.461538  0.230769  0.100000      4.000000
 -0.461538  0.230769  0.100000      4.000000
 -0.384615  0.230769  0.100000      4.000000
 -0.307692  0.230769  0.100000      4.000000
 -0.230769  0.230769  0.100000      4.000000
 -0.153846  0.230769  0.100000      4.000000
 -0.076923  0.230769  0.100000      4.000000
  0.307692  0.307692  0.100000      2.000000
  0.384615  0.307692  0.100000      4.000000
  0.461538  0.307692  0.100000      4.000000
 -0.461538  0.307692  0.100000      4.000000
 -0.384615  0.307692  0.100000      4.000000
 -0.307692  0.307692  0.100000      4.000000
 -0.230769  0.307692  0.100000      4.000000
 -0.153846  0.307692  0.100000      4.000000
 -0.076923  0.307692  0.100000      4.000000
  0.384615  0.384615  0.100000      2.000000
  0.461538  0.384615  0.100000      4.000000
 -0.461538  0.384615  0.100000      4.000000
 -0.384615  0.384615  0.100000      4.000000
 -0.307692  0.384615  0.100000      4.000000
 -0.230769  0.384615  0.100000      4.000000
 -0.153846  0.384615  0.100000      4.000000
 -0.076923  0.384615  0.100000      4.000000
  0.461538  0.461538  0.100000      2.000000
 -0.461538  0.461538  0.100000      4.000000
 -0.384615  0.461538  0.100000      4.000000
 -0.307692  0.461538  0.100000      4.000000
 -0.230769  0.461538  0.100000      4.000000
 -0.153846  0.461538  0.100000      4.000000
 -0.076923  0.461538  0.100000      4.000000
 -0.461538 -0.461538  0.100000      2.000000
 -0.384615 -0.461538  0.100000      4.000000
 -0.307692 -0.461538  0.100000      4.000000
 -0.230769 -0.461538  0.100000      4.000000
 -0.153846 -0.461538  0.100000      4.000000
 -0.076923 -0.461538  0.100000      4.000000
 -0.384615 -0.384615  0.100000      2.000000
 -0.307692 -0.384615  0.100000      4.000000
 -0.230769 -0.384615  0.100000      4.000000
 -0.153846 -0.384615  0.100000      4.000000
 -0.076923 -0.384615  0.100000      4.000000
 -0.307692 -0.307692  0.100000      2.000000
 -0.230769 -0.307692  0.100000      4.000000
 -0.153846 -0.307692  0.100000      4.000000
 -0.076923 -0.307692  0.100000      4.000000
 -0.230769 -0.230769  0.100000      2.000000
 -0.153846 -0.230769  0.100000      4.000000
 -0.076923 -0.230769  0.100000      4.000000
 -0.153846 -0.153846  0.100000      2.000000
 -0.076923 -0.153846  0.100000      4.000000
 -0.076923 -0.076923  0.100000      2.000000
  0.000000  0.000000  0.200000      2.000000
  0.076923  0.000000  0.200000      4.000000
  0.153846 -0.000000  0.200000      4.000000
  0.230769 -0.000000  0.200000      4.000000
  0.307692 -0.000000  0.200000      4.000000
  0.384615  0.000000  0.200000      4.000000
  0.461538  0.000000  0.200000      4.000000
 -0.461538  0.000000  0.200000      4.000000
 -0.384615  0.000000  0.200000      4.000000
 -0.307692  0.000000  0.200000      4.000000
 -0.230769  0.000000  0.200000      4.000000
 -0.153846  0.000000  0.200000      4.000000
 -0.076923  0.000000  0.200000      4.000000
  0.076923  0.076923  0.200000      2.000000
  0.153846  0.076923  0.200000      4.000000
  0.230769  0.076923  0.200000      4.000000
  0.307692  0.076923  0.200000      4.000000
  0.384615  0.076923  0.200000      4.000000
  0.461538  0.076923  0.200000      4.000000
 -0.461538  0.076923  0.200000      4.000000
 -0.384615  0.076923  0.200000      4.000000
 -0.307692  0.076923  0.200000      4.000000
 -0.230769  0.076923  0.200000      4.000000
 -0.153846  0.076923  0.200000      4.000000
 -0.076923  0.076923  0.200000      4.000000
  0.153846  0.153846  0.200000      2.000000
  0.230769  0.153846  0.200000      4.000000
  0.307692  0.153846  0.200000      4.000000
  0.384615  0.153846  0.200000      4.000000
  0.461538  0.153846  0.200000      4.000000
 -0.461538  0.153846  0.200000      4.000000
 -0.384615  0.153846  0.200000      4.000000
 -0.307692  0.153846  0.200000      4.000000
 -0.230769  0.153846  0.200000      4.000000
 -0.153846  0.153846  0.200000      4.000000
 -0.076923  0.153846  0.200000      4.000000
  0.230769  0.230769  0.200000      2.000000
  0.307692  0.230769  0.200000      4.000000
  0.384615  0.230769  0.200000      4.000000
  0.461538  0.230769  0.200000      4.000000
 -0.461538  0.230769  0.200000      4.000000
 -0.384615  0.230769  0.200000      4.000000
 -0.307692  0.230769  0.200000      4.000000
 -0.230769  0.230769  0.200000      4.000000
 -0.153846  0.230769  0.200000      4.000000
 -0.076923  0.230769  0.200000      4.000000
  0.307692  0.307692  0.200000      2.000000
  0.384615  0.307692  0.200000      4.000000
  0.461538  0.307692  0.200000      4.000000
 -0.461538  0.307692  0.200000      4.000000
 -0.384615  0.307692  0.200000      4.000000
 -0.307692  0.307692  0.200000      4.000000
 -0.230769  0.307692  0.200000      4.000000
 -0.153846  0.307692  0.200000      4.000000
 -0.076923  0.307692  0.200000      4.000000
  0.384615  0.384615  0.200000      2.000000
  0.461538  0.384615  0.200000      4.000000
 -0.461538  0.384615  0.200000      4.000000
 -0.384615  0.384615  0.200000      4.000000
 -0.307692  0.384615  0.200000      4.000000
 -0.230769  0.384615  0.200000      4.000000
 -0.153846  0.384615  0.200000      4.000000
 -0.076923  0.384615  0.200000      4.000000
  0.461538  0.461538  0.200000      2.000000
 -0.461538  0.461538  0.200000      4.000000
 -0.384615  0.461538  0.200000      4.000000
 -0.307692  0.461538  0.200000      4.000000
 -0.230769  0.461538  0.200000      4.000000
 -0.153846  0.461538  0.200000      4.000000
 -0.076923  0.461538  0.200000      4.000000
 -0.461538 -0.461538  0.200000      2.000000
 -0.384615 -0.461538  0.200000      4.000000
 -0.307692 -0.461538  0.200000      4.000000
 -0.230769 -0.461538  0.200000      4.000000
 -0.153846 -0.461538  0.200000      4.000000
 -0.076923 -0.461538  0.200000      4.000000
 -0.384615 -0.384615  0.200000      2.000000
 -0.307692 -0.384615  0.200000      4.000000
 -0.230769 -0.384615  0.200000      4.000000
 -0.153846 -0.384615  0.200000      4.000000
 -0.076923 -0.384615  0.200000      4.000000
 -0.307692 -0.307692  0.200000      2.000000
 -0.230769 -0.307692  0.200000      4.000000
 -0.153846 -0.307692  0.200000      4.000000
 -0.076923 -0.307692  0.200000      4.000000
 -0.230769 -0.230769  0.200000      2.000000
 -0.153846 -0.230769  0.200000      4.000000
 -0.076923 -0.230769  0.200000      4.000000
 -0.153846 -0.153846  0.200000      2.000000
 -0.076923 -0.153846  0.200000      4.000000
 -0.076923 -0.076923  0.200000      2.000000
 -0.000000 -0.000000  0.300000      2.000000
  0.076923 -0.000000  0.300000      4.000000
  0.153846 -0.000000  0.300000      4.000000
  0.230769 -0.000000  0.300000      4.000000
  0.307692  0.000000  0.300000      4.000000
  0.384615 -0.000000  0.300000      4.000000
  0.461538 -0.000000  0.300000      4.000000
 -0.461538  0.000000  0.300000      4.000000
 -0.384615 -0.000000  0.300000      4.000000
 -0.307692  0.000000  0.300000      4.000000
 -0.230769  0.000000  0.300000      4.000000
 -0.153846  0.000000  0.300000      4.000000
 -0.076923 -0.000000  0.300000      4.000000
  0.076923  0.076923  0.300000      2.000000
  0.153846  0.076923  0.300000      4.000000
  0.230769  0.076923  0.300000      4.000000
  0.307692  0.076923  0.300000      4.000000
  0.384615  0.076923  0.300000      4.000000
  0.461538  0.076923  0.300000      4.000000
 -0.461538  0.076923  0.300000      4.000000
 -0.384615  0.076923  0.300000      4.000000
 -0.307692  0.076923  0.300000      4.000000
 -0.230769  0.076923  0.300000      4.000000
 -0.153846  0.076923  0.300000      4.000000
 -0.076923  0.076923  0.300000      4.000000
  0.153846  0.153846  0.300000      2.000000
  0.230769  0.153846  0.300000      4.000000
  0.307692  0.153846  0.300000      4.000000
  0.384615  0.153846  0.300000      4.000000
  0.461538  0.153846  0.300000      4.000000
 -0.461538  0.153846  0.300000      4.000000
 -0.384615  0.153846  0.300000      4.000000
 -0.307692  0.153846  0.300000      4.000000
 -0.230769  0.153846  0.300000      4.000000
 -0.153846  0.153846  0.300000      4.000000
 -0.076923  0.153846  0.300000      4.000000
  0.230769  0.230769  0.300000      2.000000
  0.307692  0.230769  0.300000      4.000000
  0.384615  0.230769  0.300000      4.000000
  0.461538  0.230769  0.300000      4.000000
 -0.461538  0.230769  0.300000      4.000000
 -0.384615  0.230769  0.300000      4.000000
 -0.307692  0.230769  0.300000      4.000000
 -0.230769  0.230769  0.300000      4.000000
 -0.153846  0.230769  0.300000      4.000000
 -0.076923  0.230769  0.300000      4.000000
  0.307692  0.307692  0.300000      2.000000
  0.384615  0.307692  0.300000      4.000000
  0.461538  0.307692  0.300000      4.000000
 -0.461538  0.307692  0.300000      4.000000
 -0.384615  0.307692  0.300000      4.000000
 -0.307692  0.307692  0.300000      4.000000
 -0.230769  0.307692  0.300000      4.000000
 -0.153846  0.307692  0.300000      4.000000
 -0.076923  0.307692  0.300000      4.000000
  0.384615  0.384615  0.300000      2.000000
  0.461538  0.384615  0.300000      4.000000
 -0.461538  0.384615  0.300000      4.000000
 -0.384615  0.384615  0.300000      4.000000
 -0.307692  0.384615  0.300000      4.000000
 -0.230769  0.384615  0.300000      4.000000
 -0.153846  0.384615  0.300000      4.000000
 -0.076923  0.384615  0.300000      4.000000
  0.461538  0.461538  0.300000      2.000000
 -0.461538  0.461538  0.300000      4.000000
 -0.384615  0.461538  0.300000      4.000000
 -0.307692  0.461538  0.300000      4.000000
 -0.230769  0.461538  0.300000      4.000000
 -0.153846  0.461538  0.300000      4.000000
 -0.076923  0.461538  0.300000      4.000000
 -0.461538 -0.461538  0.300000      2.000000
 -0.384615 -0.461538  0.300000      4.000000
 -0.307692 -0.461538  0.300000      4.000000
 -0.230769 -0.461538  0.300000      4.000000
 -0.153846 -0.461538  0.300000      4.000000
 -0.076923 -0.461538  0.300000      4.000000
 -0.384615 -0.384615  0.300000      2.000000
 -0.307692 -0.384615  0.300000      4.000000
 -0.230769 -0.384615  0.300000      4.000000
 -0.153846 -0.384615  0.300000      4.000000
 -0.076923 -0.384615  0.300000      4.000000
 -0.307692 -0.307692  0.300000      2.000000
 -0.230769 -0.307692  0.300000      4.000000
 -0.153846 -0.307692  0.300000      4.000000
 -0.076923 -0.307692  0.300000      4.000000
 -0.230769 -0.230769  0.300000      2.000000
 -0.153846 -0.230769  0.300000      4.000000
 -0.076923 -0.230769  0.300000      4.000000
 -0.153846 -0.153846  0.300000      2.000000
 -0.076923 -0.153846  0.300000      4.000000
 -0.076923 -0.076923  0.300000      2.000000
 -0.000000 -0.000000  0.400000      2.000000
  0.076923  0.000000  0.400000      4.000000
  0.153846 -0.000000  0.400000      4.000000
  0.230769 -0.000000  0.400000      4.000000
  0.307692 -0.000000  0.400000      4.000000
  0.384615 -0.000000  0.400000      4.000000
  0.461538 -0.000000  0.400000      4.000000
 -0.461538 -0.000000  0.400000      4.000000
 -0.384615  0.000000  0.400000      4.000000
 -0.307692  0.000000  0.400000      4.000000
 -0.230769  0.000000  0.400000      4.000000
 -0.153846  0.000000  0.400000      4.000000
 -0.076923 -0.000000  0.400000      4.000000
  0.076923  0.076923  0.400000      2.000000
  0.153846  0.076923  0.400000      4.000000
  0.230769  0.076923  0.400000      4.000000
  0.307692  0.076923  0.400000      4.000000
  0.384615  0.076923  0.400000      4.000000
  0.461538  0.076923  0.400000      4.000000
 -0.461538  0.076923  0.400000      4.000000
 -0.384615  0.076923  0.400000      4.000000
 -0.307692  0.076923  0.400000      4.000000
 -0.230769  0.076923  0.400000      4.000000
 -0.153846  0.076923  0.400000      4.000000
 -0.076923  0.076923  0.400000      4.000000
  0.153846  0.153846  0.400000      2.000000
  0.230769  0.153846  0.400000      4.000000
  0.307692  0.153846  0.400000      4.000000
  0.384615  0.153846  0.400000      4.000000
  0.461538  0.153846  0.400000      4.000000
 -0.461538  0.153846  0.400000      4.000000
 -0.384615  0.153846  0.400000      4.000000
 -0.307692  0.153846  0.400000      4.000000
 -0.230769  0.153846  0.400000      4.000000
 -0.153846  0.153846  0.400000      4.000000
 -0.076923  0.153846  0.400000      4.000000
  0.230769  0.230769  0.400000      2.000000
  0.307692  0.230769  0.400000      4.000000
  0.384615  0.230769  0.400000      4.000000
  0.461538  0.230769  0.400000      4.000000
 -0.461538  0.230769  0.400000      4.000000
 -0.384615  0.230769  0.400000      4.000000
 -0.307692  0.230769  0.400000      4.000000
 -0.230769  0.230769  0.400000      4.000000
 -0.153846  0.230769  0.400000      4.000000
 -0.076923  0.230769  0.400000      4.000000
  0.307692  0.307692  0.400000      2.000000
  0.384615  0.307692  0.400000      4.000000
  0.461538  0.307692  0.400000      4.000000
 -0.461538  0.307692  0.400000      4.000000
 -0.384615  0.307692  0.400000      4.000000
 -0.307692  0.307692  0.400000      4.000000
 -0.230769  0.307692  0.400000      4.000000
 -0.153846  0.307692  0.400000      4.000000
 -0.076923  0.307692  0.400000      4.000000
  0.384615  0.384615  0.400000      2.000000
  0.461538  0.384615  0.400000      4.000000
 -0.461538  0.384615  0.400000      4.000000
 -0.384615  0.384615  0.400000      4.000000
 -0.307692  0.384615  0.400000      4.000000
 -0.230769  0.384615  0.400000      4.000000
 -0.153846  0.384615  0.400000      4.000000
 -0.076923  0.384615  0.400000      4.000000
  0.461538  0.461538  0.400000      2.000000
 -0.461538  0.461538  0.400000      4.000000
 -0.384615  0.461538  0.400000      4.000000
 -0.307692  0.461538  0.400000      4.000000
 -0.230769  0.461538  0.400000      4.000000
 -0.153846  0.461538  0.400000      4.000000
 -0.076923  0.461538  0.400000      4.000000
 -0.461538 -0.461538  0.400000      2.000000
 -0.384615 -0.461538  0.400000      4.000000
 -0.307692 -0.461538  0.400000      4.000000
 -0.230769 -0.461538  0.400000      4.000000
 -0.153846 -0.461538  0.400000      4.000000
 -0.076923 -0.461538  0.400000      4.000000
 -0.384615 -0.384615  0.400000      2.000000
 -0.307692 -0.384615  0.400000      4.000000
 -0.230769 -0.384615  0.400000      4.000000
 -0.153846 -0.384615  0.400000      4.000000
 -0.076923 -0.384615  0.400000      4.000000
 -0.307692 -0.307692  0.400000      2.000000
 -0.230769 -0.307692  0.400000      4.000000
 -0.153846 -0.307692  0.400000      4.000000
 -0.076923 -0.307692  0.400000      4.000000
 -0.230769 -0.230769  0.400000      2.000000
 -0.153846 -0.230769  0.400000      4.000000
 -0.076923 -0.230769  0.400000      4.000000
 -0.153846 -0.153846  0.400000      2.000000
 -0.076923 -0.153846  0.400000      4.000000
 -0.076923 -0.076923  0.400000      2.000000
 -0.000000 -0.000000  0.500000      1.000000
  0.076923 -0.000000  0.500000      4.000000
  0.153846 -0.000000  0.500000      4.000000
  0.230769 -0.000000  0.500000      4.000000
  0.307692 -0.000000  0.500000      4.000000
  0.384615 -0.000000  0.500000      4.000000
  0.461538 -0.000000  0.500000      4.000000
  0.076923  0.076923  0.500000      2.000000
  0.153846  0.076923  0.500000      4.000000
  0.230769  0.076923  0.500000      4.000000
  0.307692  0.076923  0.500000      4.000000
  0.384615  0.076923  0.500000      4.000000
  0.461538  0.076923  0.500000      4.000000
 -0.461538  0.076923  0.500000      4.000000
 -0.384615  0.076923  0.500000      4.000000
 -0.307692  0.076923  0.500000      4.000000
 -0.230769  0.076923  0.500000      4.000000
 -0.153846  0.076923  0.500000      4.000000
 -0.076923  0.076923  0.500000      2.000000
  0.153846  0.153846  0.500000      2.000000
  0.230769  0.153846  0.500000      4.000000
  0.307692  0.153846  0.500000      4.000000
  0.384615  0.153846  0.500000      4.000000
  0.461538  0.153846  0.500000      4.000000
 -0.461538  0.153846  0.500000      4.000000
 -0.384615  0.153846  0.500000      4.000000
 -0.307692  0.153846  0.500000      4.000000
 -0.230769  0.153846  0.500000      4.000000
 -0.153846  0.153846  0.500000      2.000000
  0.230769  0.230769  0.500000      2.000000
  0.307692  0.230769  0.500000      4.000000
  0.384615  0.230769  0.500000      4.000000
  0.461538  0.230769  0.500000      4.000000
 -0.461538  0.230769  0.500000      4.000000
 -0.384615  0.230769  0.500000      4.000000
 -0.307692  0.230769  0.500000      4.000000
 -0.230769  0.230769  0.500000      2.000000
  0.307692  0.307692  0.500000      2.000000
  0.384615  0.307692  0.500000      4.000000
  0.461538  0.307692  0.500000      4.000000
 -0.461538  0.307692  0.500000      4.000000
 -0.384615  0.307692  0.500000      4.000000
 -0.307692  0.307692  0.500000      2.000000
  0.384615  0.384615  0.500000      2.000000
  0.461538  0.384615  0.500000      4.000000
 -0.461538  0.384615  0.500000      4.000000
 -0.384615  0.384615  0.500000      2.000000
  0.461538  0.461538  0.500000      2.000000
 -0.461538  0.461538  0.500000      2.000000
 
 Following cartesian coordinates:
            Coordinates               Weight
  0.000000  0.000000  0.000000      1.000000
 -0.018422  0.000002  0.007973      4.000000
 -0.036844  0.000004  0.015946      4.000000
 -0.055266  0.000006  0.023918      4.000000
 -0.073688  0.000008  0.031891      4.000000
 -0.092109  0.000010  0.039864      4.000000
 -0.110531  0.000012  0.047837      4.000000
 -0.018420 -0.018420  0.015946      2.000000
 -0.036842 -0.018418  0.023918      4.000000
 -0.055264 -0.018416  0.031891      4.000000
 -0.073686 -0.018414  0.039864      4.000000
 -0.092107 -0.018412  0.047837      4.000000
 -0.110529 -0.018410  0.055810      4.000000
  0.110533 -0.018434 -0.039864      4.000000
  0.092111 -0.018432 -0.031891      4.000000
  0.073690 -0.018430 -0.023918      4.000000
  0.055268 -0.018428 -0.015946      4.000000
  0.036846 -0.018426 -0.007973      4.000000
  0.018424 -0.018424  0.000000      2.000000
 -0.036840 -0.036840  0.031891      2.000000
 -0.055262 -0.036838  0.039864      4.000000
 -0.073684 -0.036836  0.047837      4.000000
 -0.092106 -0.036834  0.055810      4.000000
 -0.110527 -0.036832  0.063783      4.000000
  0.110535 -0.036856 -0.031891      4.000000
  0.092113 -0.036854 -0.023918      4.000000
  0.073691 -0.036852 -0.015946      4.000000
  0.055270 -0.036850 -0.007973      4.000000
  0.036848 -0.036848  0.000000      2.000000
 -0.055260 -0.055260  0.047837      2.000000
 -0.073682 -0.055258  0.055810      4.000000
 -0.092104 -0.055256  0.063783      4.000000
 -0.110525 -0.055254  0.071755      4.000000
  0.110537 -0.055277 -0.023918      4.000000
  0.092115 -0.055275 -0.015946      4.000000
  0.073693 -0.055274 -0.007973      4.000000
  0.055272 -0.055272  0.000000      2.000000
 -0.073680 -0.073680  0.063783      2.000000
 -0.092102 -0.073678  0.071755      4.000000
 -0.110523 -0.073676  0.079728      4.000000
  0.110539 -0.073699 -0.015946      4.000000
  0.092117 -0.073697 -0.007973      4.000000
  0.073695 -0.073695  0.000000      2.000000
 -0.092100 -0.092100  0.079728      2.000000
 -0.110521 -0.092098  0.087701      4.000000
  0.110541 -0.092121 -0.007973      4.000000
  0.092119 -0.092119  0.000000      2.000000
 -0.110520 -0.110520  0.095674      2.000000
  0.110543 -0.110543  0.000000      2.000000
  0.000004  0.000004  0.020739      2.000000
 -0.018418  0.000006  0.028711      4.000000
 -0.036840  0.000008  0.036684      4.000000
 -0.055262  0.000010  0.044657      4.000000
 -0.073684  0.000012  0.052630      4.000000
 -0.092106  0.000014  0.060603      4.000000
 -0.110527  0.000016  0.068575      4.000000
  0.110535 -0.000008 -0.027098      4.000000
  0.092113 -0.000006 -0.019125      4.000000
  0.073691 -0.000004 -0.011153      4.000000
  0.055270 -0.000002 -0.003180      4.000000
  0.036848 -0.000000  0.004793      4.000000
  0.018426  0.000002  0.012766      4.000000
 -0.018416 -0.018416  0.036684      2.000000
 -0.036838 -0.018414  0.044657      4.000000
 -0.055260 -0.018412  0.052630      4.000000
 -0.073682 -0.018410  0.060603      4.000000
 -0.092104 -0.018408  0.068575      4.000000
 -0.110525 -0.018406  0.076548      4.000000
  0.110537 -0.018430 -0.019125      4.000000
  0.092115 -0.018428 -0.011153      4.000000
  0.073693 -0.018426 -0.003180      4.000000
  0.055272 -0.018424  0.004793      4.000000
  0.036850 -0.018422  0.012766      4.000000
  0.018428 -0.018420  0.020739      4.000000
 -0.036836 -0.036836  0.052630      2.000000
 -0.055258 -0.036834  0.060603      4.000000
 -0.073680 -0.036832  0.068575      4.000000
 -0.092102 -0.036830  0.076548      4.000000
 -0.110524 -0.036828  0.084521      4.000000
  0.110539 -0.036852 -0.011153      4.000000
  0.092117 -0.036850 -0.003180      4.000000
  0.073695 -0.036848  0.004793      4.000000
  0.055273 -0.036846  0.012766      4.000000
  0.036852 -0.036844  0.020739      4.000000
  0.018430 -0.036842  0.028711      4.000000
 -0.055256 -0.055256  0.068575      2.000000
 -0.073678 -0.055254  0.076548      4.000000
 -0.092100 -0.055252  0.084521      4.000000
 -0.110522 -0.055250  0.092494      4.000000
  0.110541 -0.055274 -0.003180      4.000000
  0.092119 -0.055272  0.004793      4.000000
  0.073697 -0.055270  0.012766      4.000000
  0.055275 -0.055268  0.020739      4.000000
  0.036854 -0.055266  0.028711      4.000000
  0.018432 -0.055264  0.036684      4.000000
 -0.073676 -0.073676  0.084521      2.000000
 -0.092098 -0.073674  0.092494      4.000000
 -0.110520 -0.073672  0.100467      4.000000
  0.110543 -0.073695  0.004793      4.000000
  0.092121 -0.073693  0.012766      4.000000
  0.073699 -0.073692  0.020739      4.000000
  0.055277 -0.073690  0.028711      4.000000
  0.036856 -0.073688  0.036684      4.000000
  0.018434 -0.073686  0.044657      4.000000
 -0.092096 -0.092096  0.100467      2.000000
 -0.110518 -0.092094  0.108440      4.000000
  0.110545 -0.092117  0.012766      4.000000
  0.092123 -0.092115  0.020739      4.000000
  0.073701 -0.092113  0.028711      4.000000
  0.055279 -0.092111  0.036684      4.000000
  0.036857 -0.092109  0.044657      4.000000
  0.018436 -0.092108  0.052630      4.000000
 -0.110516 -0.110516  0.116412      2.000000
  0.110547 -0.110539  0.020739      4.000000
  0.092125 -0.110537  0.028711      4.000000
  0.073703 -0.110535  0.036684      4.000000
  0.055281 -0.110533  0.044657      4.000000
  0.036859 -0.110531  0.052630      4.000000
  0.018438 -0.110529  0.060603      4.000000
  0.110523  0.110523 -0.074935      2.000000
  0.092102  0.110525 -0.066962      4.000000
  0.073680  0.110527 -0.058990      4.000000
  0.055258  0.110529 -0.051017      4.000000
  0.036836  0.110531 -0.043044      4.000000
  0.018414  0.110533 -0.035071      4.000000
  0.092103  0.092103 -0.058990      2.000000
  0.073682  0.092105 -0.051017      4.000000
  0.055260  0.092107 -0.043044      4.000000
  0.036838  0.092109 -0.035071      4.000000
  0.018416  0.092111 -0.027098      4.000000
  0.073684  0.073684 -0.043044      2.000000
  0.055262  0.073686 -0.035071      4.000000
  0.036840  0.073687 -0.027098      4.000000
  0.018418  0.073689 -0.019125      4.000000
  0.055264  0.055264 -0.027098      2.000000
  0.036842  0.055266 -0.019125      4.000000
  0.018420  0.055268 -0.011153      4.000000
  0.036844  0.036844 -0.011153      2.000000
  0.018422  0.036846 -0.003180      4.000000
  0.018424  0.018424  0.004793      2.000000
  0.000008  0.000008  0.041477      2.000000
 -0.018414  0.000010  0.049450      4.000000
 -0.036836  0.000012  0.057423      4.000000
 -0.055258  0.000014  0.065396      4.000000
 -0.073680  0.000016  0.073368      4.000000
 -0.092102  0.000018  0.081341      4.000000
 -0.110524  0.000020  0.089314      4.000000
  0.110539 -0.000004 -0.006360      4.000000
  0.092117 -0.000002  0.001613      4.000000
  0.073695 -0.000000  0.009586      4.000000
  0.055273  0.000002  0.017559      4.000000
  0.036852  0.000004  0.025532      4.000000
  0.018430  0.000006  0.033504      4.000000
 -0.018412 -0.018412  0.057423      2.000000
 -0.036834 -0.018410  0.065396      4.000000
 -0.055256 -0.018408  0.073368      4.000000
 -0.073678 -0.018406  0.081341      4.000000
 -0.092100 -0.018404  0.089314      4.000000
 -0.110522 -0.018402  0.097287      4.000000
  0.110541 -0.018426  0.001613      4.000000
  0.092119 -0.018424  0.009586      4.000000
  0.073697 -0.018422  0.017559      4.000000
  0.055275 -0.018420  0.025532      4.000000
  0.036854 -0.018418  0.033504      4.000000
  0.018432 -0.018416  0.041477      4.000000
 -0.036832 -0.036832  0.073368      2.000000
 -0.055254 -0.036830  0.081341      4.000000
 -0.073676 -0.036828  0.089314      4.000000
 -0.092098 -0.036826  0.097287      4.000000
 -0.110520 -0.036824  0.105260      4.000000
  0.110543 -0.036848  0.009586      4.000000
  0.092121 -0.036846  0.017559      4.000000
  0.073699 -0.036844  0.025532      4.000000
  0.055277 -0.036842  0.033504      4.000000
  0.036855 -0.036840  0.041477      4.000000
  0.018434 -0.036838  0.049450      4.000000
 -0.055252 -0.055252  0.089314      2.000000
 -0.073674 -0.055250  0.097287      4.000000
 -0.092096 -0.055248  0.105260      4.000000
 -0.110518 -0.055246  0.113232      4.000000
  0.110545 -0.055270  0.017559      4.000000
  0.092123 -0.055268  0.025532      4.000000
  0.073701 -0.055266  0.033504      4.000000
  0.055279 -0.055264  0.041477      4.000000
  0.036857 -0.055262  0.049450      4.000000
  0.018436 -0.055260  0.057423      4.000000
 -0.073672 -0.073672  0.105260      2.000000
 -0.092094 -0.073670  0.113232      4.000000
 -0.110516 -0.073668  0.121205      4.000000
  0.110547 -0.073692  0.025532      4.000000
  0.092125 -0.073690  0.033504      4.000000
  0.073703 -0.073688  0.041477      4.000000
  0.055281 -0.073686  0.049450      4.000000
  0.036859 -0.073684  0.057423      4.000000
  0.018438 -0.073682  0.065396      4.000000
 -0.092092 -0.092092  0.121205      2.000000
 -0.110514 -0.092090  0.129178      4.000000
  0.110549 -0.092113  0.033504      4.000000
  0.092127 -0.092112  0.041477      4.000000
  0.073705 -0.092110  0.049450      4.000000
  0.055283 -0.092108  0.057423      4.000000
  0.036861 -0.092106  0.065396      4.000000
  0.018439 -0.092104  0.073368      4.000000
 -0.110512 -0.110512  0.137151      2.000000
  0.110551 -0.110535  0.041477      4.000000
  0.092129 -0.110533  0.049450      4.000000
  0.073707 -0.110531  0.057423      4.000000
  0.055285 -0.110529  0.065396      4.000000
  0.036863 -0.110527  0.073368      4.000000
  0.018441 -0.110526  0.081341      4.000000
  0.110527  0.110527 -0.054197      2.000000
  0.092105  0.110529 -0.046224      4.000000
  0.073684  0.110531 -0.038251      4.000000
  0.055262  0.110533 -0.030278      4.000000
  0.036840  0.110535 -0.022305      4.000000
  0.018418  0.110537 -0.014333      4.000000
  0.092107  0.092107 -0.038251      2.000000
  0.073685  0.092109 -0.030278      4.000000
  0.055264  0.092111 -0.022305      4.000000
  0.036842  0.092113 -0.014333      4.000000
  0.018420  0.092115 -0.006360      4.000000
  0.073687  0.073687 -0.022305      2.000000
  0.055266  0.073689 -0.014333      4.000000
  0.036844  0.073691 -0.006360      4.000000
  0.018422  0.073693  0.001613      4.000000
  0.055268  0.055268 -0.006360      2.000000
  0.036846  0.055269  0.001613      4.000000
  0.018424  0.055271  0.009586      4.000000
  0.036848  0.036848  0.009586      2.000000
  0.018426  0.036850  0.017559      4.000000
  0.018428  0.018428  0.025532      2.000000
  0.000012  0.000012  0.062216      2.000000
 -0.018410  0.000014  0.070189      4.000000
 -0.036832  0.000016  0.078161      4.000000
 -0.055254  0.000018  0.086134      4.000000
 -0.073676  0.000020  0.094107      4.000000
 -0.092098  0.000021  0.102080      4.000000
 -0.110520  0.000023  0.110053      4.000000
  0.110543 -0.000000  0.014379      4.000000
  0.092121  0.000002  0.022352      4.000000
  0.073699  0.000004  0.030324      4.000000
  0.055277  0.000006  0.038297      4.000000
  0.036855  0.000008  0.046270      4.000000
  0.018434  0.000010  0.054243      4.000000
 -0.018408 -0.018408  0.078161      2.000000
 -0.036830 -0.018406  0.086134      4.000000
 -0.055252 -0.018404  0.094107      4.000000
 -0.073674 -0.018402  0.102080      4.000000
 -0.092096 -0.018400  0.110053      4.000000
 -0.110518 -0.018398  0.118025      4.000000
  0.110545 -0.018422  0.022352      4.000000
  0.092123 -0.018420  0.030324      4.000000
  0.073701 -0.018418  0.038297      4.000000
  0.055279 -0.018416  0.046270      4.000000
  0.036857 -0.018414  0.054243      4.000000
  0.018436 -0.018412  0.062216      4.000000
 -0.036828 -0.036828  0.094107      2.000000
 -0.055250 -0.036826  0.102080      4.000000
 -0.073672 -0.036824  0.110053      4.000000
 -0.092094 -0.036822  0.118025      4.000000
 -0.110516 -0.036820  0.125998      4.000000
  0.110547 -0.036844  0.030324      4.000000
  0.092125 -0.036842  0.038297      4.000000
  0.073703 -0.036840  0.046270      4.000000
  0.055281 -0.036838  0.054243      4.000000
  0.036859 -0.036836  0.062216      4.000000
  0.018437 -0.036834  0.070189      4.000000
 -0.055248 -0.055248  0.110053      2.000000
 -0.073670 -0.055246  0.118025      4.000000
 -0.092092 -0.055244  0.125998      4.000000
 -0.110514 -0.055242  0.133971      4.000000
  0.110549 -0.055266  0.038297      4.000000
  0.092127 -0.055264  0.046270      4.000000
  0.073705 -0.055262  0.054243      4.000000
  0.055283 -0.055260  0.062216      4.000000
  0.036861 -0.055258  0.070189      4.000000
  0.018439 -0.055256  0.078161      4.000000
 -0.073668 -0.073668  0.125998      2.000000
 -0.092090 -0.073666  0.133971      4.000000
 -0.110512 -0.073664  0.141944      4.000000
  0.110551 -0.073688  0.046270      4.000000
  0.092129 -0.073686  0.054243      4.000000
  0.073707 -0.073684  0.062216      4.000000
  0.055285 -0.073682  0.070189      4.000000
  0.036863 -0.073680  0.078161      4.000000
  0.018441 -0.073678  0.086134      4.000000
 -0.092088 -0.092088  0.141944      2.000000
 -0.110510 -0.092086  0.149917      4.000000
  0.110553 -0.092110  0.054243      4.000000
  0.092131 -0.092108  0.062216      4.000000
  0.073709 -0.092106  0.070189      4.000000
  0.055287 -0.092104  0.078161      4.000000
  0.036865 -0.092102  0.086134      4.000000
  0.018443 -0.092100  0.094107      4.000000
 -0.110508 -0.110508  0.157889      2.000000
  0.110555 -0.110531  0.062216      4.000000
  0.092133 -0.110530  0.070189      4.000000
  0.073711 -0.110528  0.078161      4.000000
  0.055289 -0.110526  0.086134      4.000000
  0.036867 -0.110524  0.094107      4.000000
  0.018445 -0.110522  0.102080      4.000000
  0.110531  0.110531 -0.033458      2.000000
  0.092109  0.110533 -0.025485      4.000000
  0.073687  0.110535 -0.017512      4.000000
  0.055266  0.110537 -0.009540      4.000000
  0.036844  0.110539 -0.001567      4.000000
  0.018422  0.110541  0.006406      4.000000
  0.092111  0.092111 -0.017512      2.000000
  0.073689  0.092113 -0.009540      4.000000
  0.055267  0.092115 -0.001567      4.000000
  0.036846  0.092117  0.006406      4.000000
  0.018424  0.092119  0.014379      4.000000
  0.073691  0.073691 -0.001567      2.000000
  0.055269  0.073693  0.006406      4.000000
  0.036848  0.073695  0.014379      4.000000
  0.018426  0.073697  0.022352      4.000000
  0.055271  0.055271  0.014379      2.000000
  0.036850  0.055273  0.022352      4.000000
  0.018428  0.055275  0.030324      4.000000
  0.036851  0.036851  0.030324      2.000000
  0.018430  0.036853  0.038297      4.000000
  0.018432  0.018432  0.046270      2.000000
  0.000016  0.000016  0.082954      2.000000
 -0.018406  0.000018  0.090927      4.000000
 -0.036828  0.000019  0.098900      4.000000
 -0.055250  0.000021  0.106873      4.000000
 -0.073672  0.000023  0.114846      4.000000
 -0.092094  0.000025  0.122818      4.000000
 -0.110516  0.000027  0.130791      4.000000
  0.110547  0.000004  0.035117      4.000000
  0.092125  0.000006  0.043090      4.000000
  0.073703  0.000008  0.051063      4.000000
  0.055281  0.000010  0.059036      4.000000
  0.036859  0.000012  0.067009      4.000000
  0.018437  0.000014  0.074981      4.000000
 -0.018404 -0.018404  0.098900      2.000000
 -0.036826 -0.018402  0.106873      4.000000
 -0.055248 -0.018400  0.114846      4.000000
 -0.073670 -0.018398  0.122818      4.000000
 -0.092092 -0.018397  0.130791      4.000000
 -0.110514 -0.018395  0.138764      4.000000
  0.110549 -0.018418  0.043090      4.000000
  0.092127 -0.018416  0.051063      4.000000
  0.073705 -0.018414  0.059036      4.000000
  0.055283 -0.018412  0.067009      4.000000
  0.036861 -0.018410  0.074981      4.000000
  0.018439 -0.018408  0.082954      4.000000
 -0.036824 -0.036824  0.114846      2.000000
 -0.055246 -0.036822  0.122818      4.000000
 -0.073668 -0.036820  0.130791      4.000000
 -0.092090 -0.036818  0.138764      4.000000
 -0.110512 -0.036816  0.146737      4.000000
  0.110551 -0.036840  0.051063      4.000000
  0.092129 -0.036838  0.059036      4.000000
  0.073707 -0.036836  0.067009      4.000000
  0.055285 -0.036834  0.074981      4.000000
  0.036863 -0.036832  0.082954      4.000000
  0.018441 -0.036830  0.090927      4.000000
 -0.055244 -0.055244  0.130791      2.000000
 -0.073666 -0.055242  0.138764      4.000000
 -0.092088 -0.055240  0.146737      4.000000
 -0.110510 -0.055238  0.154710      4.000000
  0.110553 -0.055262  0.059036      4.000000
  0.092131 -0.055260  0.067009      4.000000
  0.073709 -0.055258  0.074981      4.000000
  0.055287 -0.055256  0.082954      4.000000
  0.036865 -0.055254  0.090927      4.000000
  0.018443 -0.055252  0.098900      4.000000
 -0.073664 -0.073664  0.146737      2.000000
 -0.092086 -0.073662  0.154710      4.000000
 -0.110508 -0.073660  0.162682      4.000000
  0.110555 -0.073684  0.067009      4.000000
  0.092133 -0.073682  0.074981      4.000000
  0.073711 -0.073680  0.082954      4.000000
  0.055289 -0.073678  0.090927      4.000000
  0.036867 -0.073676  0.098900      4.000000
  0.018445 -0.073674  0.106873      4.000000
 -0.092084 -0.092084  0.162682      2.000000
 -0.110506 -0.092082  0.170655      4.000000
  0.110557 -0.092106  0.074981      4.000000
  0.092135 -0.092104  0.082954      4.000000
  0.073713 -0.092102  0.090927      4.000000
  0.055291 -0.092100  0.098900      4.000000
  0.036869 -0.092098  0.106873      4.000000
  0.018447 -0.092096  0.114846      4.000000
 -0.110504 -0.110504  0.178628      2.000000
  0.110559 -0.110528  0.082954      4.000000
  0.092137 -0.110526  0.090927      4.000000
  0.073715 -0.110524  0.098900      4.000000
  0.055293 -0.110522  0.106873      4.000000
  0.036871 -0.110520  0.114846      4.000000
  0.018449 -0.110518  0.122818      4.000000
  0.110535  0.110535 -0.012719      2.000000
  0.092113  0.110537 -0.004747      4.000000
  0.073691  0.110539  0.003226      4.000000
  0.055269  0.110541  0.011199      4.000000
  0.036848  0.110543  0.019172      4.000000
  0.018426  0.110545  0.027145      4.000000
  0.092115  0.092115  0.003226      2.000000
  0.073693  0.092117  0.011199      4.000000
  0.055271  0.092119  0.019172      4.000000
  0.036849  0.092121  0.027145      4.000000
  0.018428  0.092123  0.035117      4.000000
  0.073695  0.073695  0.019172      2.000000
  0.055273  0.073697  0.027145      4.000000
  0.036851  0.073699  0.035117      4.000000
  0.018430  0.073701  0.043090      4.000000
  0.055275  0.055275  0.035117      2.000000
  0.036853  0.055277  0.043090      4.000000
  0.018432  0.055279  0.051063      4.000000
  0.036855  0.036855  0.051063      2.000000
  0.018433  0.036857  0.059036      4.000000
  0.018435  0.018435  0.067009      2.000000
  0.000019  0.000019  0.103693      1.000000
 -0.018402  0.000021  0.111666      4.000000
 -0.036824  0.000023  0.119639      4.000000
 -0.055246  0.000025  0.127611      4.000000
 -0.073668  0.000027  0.135584      4.000000
 -0.092090  0.000029  0.143557      4.000000
 -0.110512  0.000031  0.151530      4.000000
 -0.018401 -0.018401  0.119639      2.000000
 -0.036822 -0.018399  0.127611      4.000000
 -0.055244 -0.018397  0.135584      4.000000
 -0.073666 -0.018395  0.143557      4.000000
 -0.092088 -0.018393  0.151530      4.000000
 -0.110510 -0.018391  0.159503      4.000000
  0.110553 -0.018414  0.063829      4.000000
  0.092131 -0.018412  0.071802      4.000000
  0.073709 -0.018410  0.079774      4.000000
  0.055287 -0.018408  0.087747      4.000000
  0.036865 -0.018406  0.095720      4.000000
  0.018443 -0.018404  0.103693      2.000000
 -0.036820 -0.036820  0.135584      2.000000
 -0.055242 -0.036818  0.143557      4.000000
 -0.073664 -0.036816  0.151530      4.000000
 -0.092086 -0.036815  0.159503      4.000000
 -0.110508 -0.036813  0.167475      4.000000
  0.110555 -0.036836  0.071802      4.000000
  0.092133 -0.036834  0.079774      4.000000
  0.073711 -0.036832  0.087747      4.000000
  0.055289 -0.036830  0.095720      4.000000
  0.036867 -0.036828  0.103693      2.000000
 -0.055240 -0.055240  0.151530      2.000000
 -0.073662 -0.055238  0.159503      4.000000
 -0.092084 -0.055236  0.167475      4.000000
 -0.110506 -0.055234  0.175448      4.000000
  0.110557 -0.055258  0.079774      4.000000
  0.092135 -0.055256  0.087747      4.000000
  0.073713 -0.055254  0.095720      4.000000
  0.055291 -0.055252  0.103693      2.000000
 -0.073660 -0.073660  0.167475      2.000000
 -0.092082 -0.073658  0.175448      4.000000
 -0.110504 -0.073656  0.183421      4.000000
  0.110559 -0.073680  0.087747      4.000000
  0.092137 -0.073678  0.095720      4.000000
  0.073715 -0.073676  0.103693      2.000000
 -0.092080 -0.092080  0.183421      2.000000
 -0.110502 -0.092078  0.191394      4.000000
  0.110561 -0.092102  0.095720      4.000000
  0.092139 -0.092100  0.103693      2.000000
 -0.110500 -0.110500  0.199367      2.000000
  0.110563 -0.110524  0.103693      2.000000
 


--------------------------------------------------------------------------------------------------------




 Dimension of arrays:
   k-points           NKPTS =    462   k-points in BZ     NKDIM =    462   number of bands    NBANDS=     24
   number of dos      NEDOS =    301   number of ions     NIONS =      5
   non local maximal  LDIM  =      8   non local SUM 2l+1 LMDIM =     32
   total plane-waves  NPLWV =  43008
   max r-space proj   IRMAX =      1   max aug-charges    IRDMAX= 214048
   dimension x,y,z NGX =    32 NGY =   32 NGZ =   42
   dimension x,y,z NGXF=    64 NGYF=   64 NGZF=   84
   support grid    NGXF=   128 NGYF=  128 NGZF=  168
   ions per type =               1   1   3
   NGX,Y,Z   is equivalent  to a cutoff of  12.74, 12.74, 12.35 a.u.
   NGXF,Y,Z  is equivalent  to a cutoff of  25.48, 25.48, 24.70 a.u.

 SYSTEM =  matgen-scf                              
 POSCAR =  624028                                  

 Startparameter for this run:
   NWRITE =      2    write-flag & timer
   PREC   = accura    normal or accurate (medium, high low for compatibility)
   ISTART =      0    job   : 0-new  1-cont  2-samecut
   ICHARG =      2    charge: 1-file 2-atom 10-const
   ISPIN  =      2    spin polarized calculation?
   LNONCOLLINEAR =      F non collinear calculations
   LSORBIT =      F    spin-orbit coupling
   INIWAV =      1    electr: 0-lowe 1-rand  2-diag
   LASPH  =      F    aspherical Exc in radial PAW
   METAGGA=      F    non-selfconsistent MetaGGA calc.

 Electronic Relaxation 1
   ENCUT  =  520.0 eV  38.22 Ry    6.18 a.u.   7.76  7.76 10.51*2*pi/ulx,y,z
   ENINI  =  520.0     initial cutoff
   ENAUG  =  583.6 eV  augmentation charge cutoff
   NELM   =    140;   NELMIN=  6; NELMDL= -5     # of ELM steps 
   EDIFF  = 0.1E-03   stopping-criterion for ELM
   LREAL  =      F    real-space projection
   NLSPLINE    = F    spline interpolate recip. space projectors
   LCOMPAT=      F    compatible to vasp.4.4
   GGA_COMPAT  = T    GGA compatible to vasp.4.4-vasp.4.6
   LMAXPAW     = -100 max onsite density
   LMAXMIX     =    6 max onsite mixed and CHGCAR
   VOSKOWN=      0    Vosko Wilk Nusair interpolation
   ROPT   =    0.00000   0.00000   0.00000
 Ionic relaxation
   EDIFFG = -.1E-01   stopping-criterion for IOM
   NSW    =      0    number of steps for IOM
   NBLOCK =      1;   KBLOCK =      1    inner block; outer block 
   IBRION =     -1    ionic relax: 0-MD 1-quasi-New 2-CG
   NFREE  =      0    steps in history (QN), initial steepest desc. (CG)
   ISIF   =      2    stress and relaxation
   IWAVPR =     10    prediction:  0-non 1-charg 2-wave 3-comb
   ISYM   =      2    0-nonsym 1-usesym 2-fastsym
   LCORR  =      T    Harris-Foulkes like correction to forces

   POTIM  = 0.0500    time-step for ionic-motion
   TEIN   =    0.0    initial temperature
   TEBEG  =    0.0;   TEEND  =   0.0 temperature during run
   SMASS  =  -3.00    Nose mass-parameter (am)
   estimated Nose-frequenzy (Omega)   =  0.10E-29 period in steps = 0.13E+48 mass=  -0.398E-27a.u.
   SCALEE = 1.0000    scale energy and forces
   NPACO  =    256;   APACO  = 16.0  distance and # of slots for P.C.
   PSTRESS=    0.0 pullay stress

  Mass of Ions in am
   POMASS =  58.93138.90 28.09
  Ionic Valenz
   ZVAL   =   9.00 11.00  4.00
  Atomic Wigner-Seitz radii
   RWIGS  =  -1.00 -1.00 -1.00
  virtual crystal weights 
   VCA    =   1.00  1.00  1.00
   NELECT =      32.0000    total number of electrons
   NUPDOWN=      -1.0000    fix difference up-down

 DOS related values:
   EMIN   =  10.00;   EMAX   =-10.00  energy-range for DOS
   EFERMI =   0.00
   ISMEAR =     0;   SIGMA  =   0.05  broadening in eV -4-tet -1-fermi 0-gaus

 Electronic relaxation 2 (details)
   IALGO  =     38    algorithm
   LDIAG  =      T    sub-space diagonalisation (order eigenvalues)
   LSUBROT=      F    optimize rotation matrix (better conditioning)
   TURBO    =      0    0=normal 1=particle mesh
   IRESTART =      0    0=no restart 2=restart with 2 vectors
   NREBOOT  =      0    no. of reboots
   NMIN     =      0    reboot dimension
   EREF     =   0.00    reference energy to select bands
   IMIX   =      4    mixing-type and parameters
     AMIX     =   0.40;   BMIX     =  1.00
     AMIX_MAG =   1.60;   BMIX_MAG =  1.00
     AMIN     =   0.10
     WC   =   100.;   INIMIX=   1;  MIXPRE=   1;  MAXMIX= -45

 Intra band minimization:
   WEIMIN = 0.0000     energy-eigenvalue tresh-hold
   EBREAK =  0.10E-05  absolut break condition
   DEPER  =   0.30     relativ break condition  

   TIME   =   0.40     timestep for ELM

  volume/ion in A,a.u.               =      16.81       113.45
  Fermi-wavevector in a.u.,A,eV,Ry     =   1.186478  2.242118 19.153320  1.407729
  Thomas-Fermi vector in A             =   2.322650
 
 Write flags
   LWAVE        =      T    write WAVECAR
   LDOWNSAMPLE  =      F    k-point downsampling of WAVECAR
   LCHARG       =      T    write CHGCAR
   LVTOT        =      F    write LOCPOT, total local potential
   LVHAR        =      F    write LOCPOT, Hartree potential only
   LELF         =      F    write electronic localiz. function (ELF)
   LORBIT       =     11    0 simple, 1 ext, 2 COOP (PROOUT), +10 PAW based schemes


 Dipole corrections
   LMONO  =      F    monopole corrections only (constant potential shift)
   LDIPOL =      F    correct potential (dipole corrections)
   IDIPOL =      0    1-x, 2-y, 3-z, 4-all directions 
   EPSILON=  1.0000000 bulk dielectric constant

 LDA+U is selected, type is set to LDAUTYPE =  2
   angular momentum for each species LDAUL =     2    3   -1
   U (eV)           for each species LDAUU =   5.0  7.5  0.0
   J (eV)           for each species LDAUJ =   0.0  0.0  0.0
 Exchange correlation treatment:
   GGA     =    --    GGA type
   LEXCH   =     8    internal setting for exchange type
   VOSKOWN=      0    Vosko Wilk Nusair interpolation
   LHFCALC =     F    Hartree Fock is set to
   LHFONE  =     F    Hartree Fock one center treatment
   AEXX    =    0.0000 exact exchange contribution

 Linear response parameters
   LEPSILON=     F    determine dielectric tensor
   LRPA    =     F    only Hartree local field effects (RPA)
   LNABLA  =     F    use nabla operator in PAW spheres
   LVEL    =     F    velocity operator in full k-point grid
   LINTERFAST=   F  fast interpolation
   KINTER  =     0    interpolate to denser k-point grid
   CSHIFT  =0.1000    complex shift for real part using Kramers Kronig
   OMEGAMAX=  -1.0    maximum frequency
   DEG_THRESHOLD= 0.2000000E-02 threshold for treating states as degnerate
   RTIME   =   -0.100 relaxation time in fs
  (WPLASMAI=    0.000 imaginary part of plasma frequency in eV, 0.658/RTIME)
   DFIELD  = 0.0000000 0.0000000 0.0000000 field for delta impulse in time
 
 Orbital magnetization related:
   ORBITALMAG=     F  switch on orbital magnetization
   LCHIMAG   =     F  perturbation theory with respect to B field
   DQ        =  0.001000  dq finite difference perturbation B field
   LLRAUG    =     F  two centre corrections for induced B field



--------------------------------------------------------------------------------------------------------


 Static calculation
 charge density and potential will be updated during run
 spin polarized calculation
 Variant of blocked Davidson
 Davidson routine will perform the subspace rotation
 perform sub-space diagonalisation
    after iterative eigenvector-optimisation
 modified Broyden-mixing scheme, WC =      100.0
 initial mixing is a Kerker type mixing with AMIX =  0.4000 and BMIX =      1.0000
 Hartree-type preconditioning will be used
 using additional bands            8
 reciprocal scheme for non local part
 use partial core corrections
 calculate Harris-corrections to forces 
   (improved forces if not selfconsistent)
 use gradient corrections 
 use of overlap-Matrix (Vanderbilt PP)
 Gauss-broadening in eV      SIGMA  =   0.05


--------------------------------------------------------------------------------------------------------


  energy-cutoff  :      520.00
  volume of cell :       84.06
      direct lattice vectors                 reciprocal lattice vectors
    -4.175296664 -0.000107409  0.000781902    -0.239484530  0.000025570  0.103646578
    -0.000107409 -4.175296664  0.000781902     0.000025570 -0.239484530  0.103646578
     2.086769744  2.086769744  4.821150135     0.000038836  0.000038836  0.207385767

  length of vectors
     4.175296739  4.175296739  5.652672338     0.260951057  0.260951057  0.207385774


 
 k-points in units of 2pi/SCALE and weight: MATGEN KPT                              
   0.00000000  0.00000000  0.00000000       0.001
  -0.01842189  0.00000197  0.00797281       0.002
  -0.03684377  0.00000393  0.01594563       0.002
  -0.05526566  0.00000590  0.02391844       0.002
  -0.07368755  0.00000787  0.03189125       0.002
  -0.09210943  0.00000983  0.03986407       0.002
  -0.11053132  0.00001180  0.04783688       0.002
  -0.01841992 -0.01841992  0.01594563       0.001
  -0.03684181 -0.01841795  0.02391844       0.002
  -0.05526369 -0.01841599  0.03189125       0.002
  -0.07368558 -0.01841402  0.03986407       0.002
  -0.09210747 -0.01841205  0.04783688       0.002
  -0.11052935 -0.01841009  0.05580970       0.002
   0.11053329 -0.01843369 -0.03986407       0.002
   0.09211140 -0.01843172 -0.03189125       0.002
   0.07368951 -0.01842975 -0.02391844       0.002
   0.05526763 -0.01842779 -0.01594563       0.002
   0.03684574 -0.01842582 -0.00797281       0.002
   0.01842385 -0.01842385  0.00000000       0.001
  -0.03683984 -0.03683984  0.03189125       0.001
  -0.05526173 -0.03683787  0.03986407       0.002
  -0.07368361 -0.03683591  0.04783688       0.002
  -0.09210550 -0.03683394  0.05580970       0.002
  -0.11052739 -0.03683197  0.06378251       0.002
   0.11053526 -0.03685558 -0.03189125       0.002
   0.09211337 -0.03685361 -0.02391844       0.002
   0.07369148 -0.03685164 -0.01594563       0.002
   0.05526959 -0.03684967 -0.00797281       0.002
   0.03684771 -0.03684771  0.00000000       0.001
  -0.05525976 -0.05525976  0.04783688       0.001
  -0.07368165 -0.05525779  0.05580970       0.002
  -0.09210353 -0.05525583  0.06378251       0.002
  -0.11052542 -0.05525386  0.07175532       0.002
   0.11053722 -0.05527746 -0.02391844       0.002
   0.09211534 -0.05527550 -0.01594563       0.002
   0.07369345 -0.05527353 -0.00797281       0.002
   0.05527156 -0.05527156  0.00000000       0.001
  -0.07367968 -0.07367968  0.06378251       0.001
  -0.09210157 -0.07367771  0.07175532       0.002
  -0.11052345 -0.07367575  0.07972814       0.002
   0.11053919 -0.07369935 -0.01594563       0.002
   0.09211730 -0.07369738 -0.00797281       0.002
   0.07369542 -0.07369542  0.00000000       0.001
  -0.09209960 -0.09209960  0.07972814       0.001
  -0.11052149 -0.09209763  0.08770095       0.002
   0.11054116 -0.09212124 -0.00797281       0.002
   0.09211927 -0.09211927  0.00000000       0.001
  -0.11051952 -0.11051952  0.09567376       0.001
   0.11054312 -0.11054312  0.00000000       0.001
   0.00000388  0.00000388  0.02073858       0.001
  -0.01841800  0.00000585  0.02871139       0.002
  -0.03683989  0.00000782  0.03668420       0.002
  -0.05526178  0.00000978  0.04465702       0.002
  -0.07368366  0.00001175  0.05262983       0.002
  -0.09210555  0.00001372  0.06060265       0.002
  -0.11052744  0.00001569  0.06857546       0.002
   0.11053521 -0.00000792 -0.02709831       0.002
   0.09211332 -0.00000595 -0.01912549       0.002
   0.07369143 -0.00000398 -0.01115268       0.002
   0.05526954 -0.00000202 -0.00317986       0.002
   0.03684766 -0.00000005  0.00479295       0.002
   0.01842577  0.00000192  0.01276576       0.002
  -0.01841604 -0.01841604  0.03668420       0.001
  -0.03683792 -0.01841407  0.04465702       0.002
  -0.05525981 -0.01841210  0.05262983       0.002
  -0.07368170 -0.01841014  0.06060265       0.002
  -0.09210358 -0.01840817  0.06857546       0.002
  -0.11052547 -0.01840620  0.07654827       0.002
   0.11053717 -0.01842981 -0.01912549       0.002
   0.09211529 -0.01842784 -0.01115268       0.002
   0.07369340 -0.01842587 -0.00317986       0.002
   0.05527151 -0.01842390  0.00479295       0.002
   0.03684962 -0.01842194  0.01276576       0.002
   0.01842774 -0.01841997  0.02073858       0.002
  -0.03683596 -0.03683596  0.05262983       0.001
  -0.05525784 -0.03683399  0.06060265       0.002
  -0.07367973 -0.03683202  0.06857546       0.002
  -0.09210162 -0.03683006  0.07654827       0.002
  -0.11052350 -0.03682809  0.08452109       0.002
   0.11053914 -0.03685169 -0.01115268       0.002
   0.09211725 -0.03684973 -0.00317986       0.002
   0.07369537 -0.03684776  0.00479295       0.002
   0.05527348 -0.03684579  0.01276576       0.002
   0.03685159 -0.03684382  0.02073858       0.002
   0.01842970 -0.03684186  0.02871139       0.002
  -0.05525588 -0.05525588  0.06857546       0.001
  -0.07367776 -0.05525391  0.07654827       0.002
  -0.09209965 -0.05525194  0.08452109       0.002
  -0.11052154 -0.05524998  0.09249390       0.002
   0.11054111 -0.05527358 -0.00317986       0.002
   0.09211922 -0.05527161  0.00479295       0.002
   0.07369733 -0.05526965  0.01276576       0.002
   0.05527545 -0.05526768  0.02073858       0.002
   0.03685356 -0.05526571  0.02871139       0.002
   0.01843167 -0.05526374  0.03668420       0.002
  -0.07367580 -0.07367580  0.08452109       0.001
  -0.09209768 -0.07367383  0.09249390       0.002
  -0.11051957 -0.07367186  0.10046671       0.002
   0.11054307 -0.07369547  0.00479295       0.002
   0.09212119 -0.07369350  0.01276576       0.002
   0.07369930 -0.07369153  0.02073858       0.002
   0.05527741 -0.07368957  0.02871139       0.002
   0.03685553 -0.07368760  0.03668420       0.002
   0.01843364 -0.07368563  0.04465702       0.002
  -0.09209572 -0.09209572  0.10046671       0.001
  -0.11051760 -0.09209375  0.10843953       0.002
   0.11054504 -0.09211735  0.01276576       0.002
   0.09212315 -0.09211539  0.02073858       0.002
   0.07370127 -0.09211342  0.02871139       0.002
[...]
      4      -6.5510      1.00000
      5       0.7310      1.00000
      6       1.6511      1.00000
      7       2.3753      1.00000
      8       4.6068      1.00000
      9       5.6324      1.00000
     10       6.8033      1.00000
     11       7.1519      1.00000
     12       7.6266      1.00000
     13       7.7659      1.00000
     14       7.9419      1.00000
     15       8.2161      1.00000
     16       8.3759      1.00000
     17      11.6747      0.00000
     18      12.1566      0.00000
     19      13.1992      0.00000
     20      13.8553      0.00000
     21      14.1486      0.00000
     22      14.4403      0.00000
     23      14.7156      0.00000
     24      14.9751      0.00000

 k-point   459 :      -0.4615    0.3846    0.5000
  band No.  band energies     occupation 
      1     -22.6553      1.00000
      2      -6.7560      1.00000
      3      -6.6897      1.00000
      4      -6.5595      1.00000
      5       0.7725      1.00000
      6       1.6760      1.00000
      7       2.3231      1.00000
      8       4.8275      1.00000
      9       5.4485      1.00000
     10       6.7615      1.00000
     11       7.0549      1.00000
     12       7.5717      1.00000
     13       7.7665      1.00000
     14       7.9474      1.00000
     15       8.2563      1.00000
     16       8.4430      1.00000
     17      11.6090      0.00000
     18      12.3709      0.00000
     19      13.1005      0.00000
     20      13.5748      0.00000
     21      14.0926      0.00000
     22      14.5804      0.00000
     23      14.7602      0.00000
     24      15.0359      0.00000

 k-point   460 :      -0.3846    0.3846    0.5000
  band No.  band energies     occupation 
      1     -22.6576      1.00000
      2      -6.7158      1.00000
      3      -6.7010      1.00000
      4      -6.5772      1.00000
      5       0.5931      1.00000
      6       1.9125      1.00000
      7       2.3051      1.00000
      8       5.1242      1.00000
      9       5.3953      1.00000
     10       6.7738      1.00000
     11       6.8201      1.00000
     12       7.5507      1.00000
     13       7.7877      1.00000
     14       8.0257      1.00000
     15       8.3178      1.00000
     16       8.5525      1.00000
     17      11.4196      0.00000
     18      12.2668      0.00000
     19      12.7518      0.00000
     20      13.1498      0.00000
     21      14.2621      0.00000
     22      14.5728      0.00000
     23      14.7727      0.00000
     24      15.0674      0.00000

 k-point   461 :       0.4615    0.4615    0.5000
  band No.  band energies     occupation 
      1     -22.6530      1.00000
      2      -6.7588      1.00000
      3      -6.7143      1.00000
      4      -6.5450      1.00000
      5       0.9432      1.00000
      6       1.6198      1.00000
      7       2.2060      1.00000
      8       4.5276      1.00000
      9       5.4314      1.00000
     10       6.7931      1.00000
     11       7.2934      1.00000
     12       7.6920      1.00000
     13       7.7412      1.00000
     14       7.7554      1.00000
     15       8.2470      1.00000
     16       8.3179      1.00000
     17      11.7986      0.00000
     18      12.5299      0.00000
     19      13.5008      0.00000
     20      14.0219      0.00000
     21      14.1132      0.00000
     22      14.5202      0.00000
     23      14.5699      0.00000
     24      14.9956      0.00000

 k-point   462 :      -0.4615    0.4615    0.5000
  band No.  band energies     occupation 
      1     -22.6530      1.00000
      2      -6.7564      1.00000
      3      -6.7167      1.00000
      4      -6.5480      1.00000
      5       0.9579      1.00000
      6       1.6364      1.00000
      7       2.1758      1.00000
      8       4.6390      1.00000
      9       5.3375      1.00000
     10       6.7707      1.00000
     11       7.2484      1.00000
     12       7.6434      1.00000
     13       7.7466      1.00000
     14       7.7893      1.00000
     15       8.2547      1.00000
     16       8.3519      1.00000
     17      11.7799      0.00000
     18      12.6613      0.00000
     19      13.4111      0.00000
     20      13.9641      0.00000
     21      14.1550      0.00000
     22      14.2617      0.00000
     23      14.6882      0.00000
     24      15.0284      0.00000


--------------------------------------------------------------------------------------------------------


 soft charge-density along one line, spin component           1
         0         1         2         3         4         5         6         7         8         9
 total charge-density along one line
 
 soft charge-density along one line, spin component           2
         0         1         2         3         4         5         6         7         8         9
 total charge-density along one line
 
 pseudopotential strength for first ion, spin component:           1
 -0.699  -0.000   0.000  -0.000   0.000  -1.402  -0.000   0.000
 -0.000  -0.591  -0.000   0.000  -0.000  -0.000  -1.293  -0.000
  0.000  -0.000  -0.541  -0.000  -0.000   0.000  -0.000  -1.244
 -0.000   0.000  -0.000  -0.591   0.000  -0.000   0.000  -0.000
  0.000  -0.000  -0.000   0.000  -0.440   0.000  -0.000  -0.000
 -1.402  -0.000   0.000  -0.000   0.000  -2.057  -0.000   0.000
 -0.000  -1.293  -0.000   0.000  -0.000  -0.000  -1.948  -0.000
  0.000  -0.000  -1.244  -0.000  -0.000   0.000  -0.000  -1.898
 -0.000   0.000  -0.000  -1.293   0.000  -0.000   0.000  -0.000
  0.000  -0.000  -0.000   0.000  -1.137   0.000  -0.000  -0.000
 -0.000   0.000  -0.008   0.000  -0.000  -0.000   0.000  -0.008
 -0.000   0.000  -0.014   0.000  -0.000  -0.000   0.000  -0.014
 -0.000   0.013   0.000   0.000   0.000  -0.000   0.013   0.000
  0.000  -0.000   0.007  -0.000  -0.000   0.000  -0.000   0.007
 -0.000   0.000   0.000   0.013  -0.000  -0.000   0.000   0.000
 -0.000   0.014   0.000   0.000   0.000  -0.000   0.014   0.000
  0.000  -0.000   0.010  -0.000  -0.000   0.000  -0.000   0.010
 -0.000   0.000   0.000   0.014  -0.000  -0.000   0.000   0.000
 pseudopotential strength for first ion, spin component:           2
 -0.664  -0.001   0.000  -0.001   0.000  -1.368  -0.001   0.000
 -0.001  -0.548   0.000   0.000  -0.001  -0.001  -1.252   0.000
  0.000   0.000  -0.509   0.000  -0.000   0.000   0.000  -1.213
 -0.001   0.000   0.000  -0.548   0.001  -0.001   0.000   0.000
  0.000  -0.001  -0.000   0.001  -0.344   0.000  -0.001  -0.000
 -1.368  -0.001   0.000  -0.001   0.000  -2.024  -0.001   0.000
 -0.001  -1.252   0.000   0.000  -0.001  -0.001  -1.907   0.000
  0.000   0.000  -1.213   0.000  -0.000   0.000   0.000  -1.867
 -0.001   0.000   0.000  -1.252   0.001  -0.001   0.000   0.000
  0.000  -0.001  -0.000   0.001  -1.042   0.000  -0.001  -0.000
 -0.000   0.000  -0.007   0.000  -0.000  -0.000   0.000  -0.007
 -0.000   0.000  -0.012   0.000  -0.000  -0.000   0.000  -0.012
 -0.000   0.012   0.000   0.000   0.000  -0.000   0.013   0.000
  0.000  -0.000   0.007  -0.000  -0.000   0.000  -0.000   0.007
 -0.000   0.000   0.000   0.012  -0.000  -0.000   0.000   0.000
 -0.000   0.013   0.000   0.000   0.000  -0.000   0.013   0.000
  0.000  -0.000   0.010  -0.000  -0.000   0.000  -0.000   0.010
 -0.000   0.000   0.000   0.013  -0.000  -0.000   0.000   0.000
 total augmentation occupancy for first ion, spin component:           1
  1.263   0.001  -0.001   0.001   0.000  -0.445  -0.001   0.000  -0.001   0.000  -0.000  -0.000  -0.001   0.000  -0.001   0.000
  0.001   1.416  -0.001  -0.001   0.002  -0.001  -0.832   0.000   0.000  -0.002  -0.000   0.000  -0.351   0.001   0.000   0.052
 -0.001  -0.001   1.460  -0.001   0.000   0.000   0.000  -1.026   0.000   0.000   0.017  -0.003   0.001   0.334   0.001  -0.000
  0.001  -0.001  -0.001   1.416  -0.002  -0.001   0.000   0.000  -0.832   0.002  -0.000   0.000   0.000   0.001  -0.351  -0.000
  0.000   0.002   0.000  -0.002   1.304   0.000  -0.002   0.000   0.002  -1.231   0.000   0.000  -0.001   0.000   0.001   0.000
 -0.445  -0.001   0.000  -0.001   0.000   1.339   0.001  -0.000   0.001   0.000   0.000  -0.000   0.001   0.000   0.001  -0.000
 -0.001  -0.832   0.000   0.000  -0.002   0.001   1.911   0.000  -0.000   0.002   0.000  -0.000   0.387  -0.001  -0.000  -0.047
  0.000   0.000  -1.026   0.000   0.000  -0.000   0.000   2.229   0.000   0.000  -0.005  -0.002  -0.001  -0.356  -0.001   0.000
 -0.001   0.000   0.000  -0.832   0.002   0.001  -0.000   0.000   1.911  -0.002   0.000  -0.000  -0.000  -0.001   0.387   0.000
  0.000  -0.002   0.000   0.002  -1.231   0.000   0.002   0.000  -0.002   2.679   0.000   0.000   0.001   0.000  -0.001  -0.000
 -0.000  -0.000   0.017  -0.000   0.000   0.000   0.000  -0.005   0.000   0.000   2.664  -0.452  -0.000   0.080  -0.000   0.000
 -0.000   0.000  -0.003   0.000   0.000  -0.000  -0.000  -0.002  -0.000   0.000  -0.452   0.086   0.000  -0.020   0.000   0.000
 -0.001  -0.351   0.001   0.000  -0.001   0.001   0.387  -0.001  -0.000   0.001  -0.000   0.000   0.357   0.000   0.000  -0.041
  0.000   0.001   0.334   0.001   0.000   0.000  -0.001  -0.356  -0.001   0.000   0.080  -0.020   0.000   0.358   0.000  -0.000
 -0.001   0.000   0.001  -0.351   0.001   0.001  -0.000  -0.001   0.387  -0.001  -0.000   0.000   0.000   0.000   0.357  -0.000
  0.000   0.052  -0.000  -0.000   0.000  -0.000  -0.047   0.000   0.000  -0.000   0.000   0.000  -0.041  -0.000  -0.000   0.006
  0.000  -0.000  -0.045  -0.000   0.000  -0.000   0.000   0.048   0.000   0.000  -0.013   0.003  -0.000  -0.042  -0.000   0.000
  0.000  -0.000  -0.000   0.052  -0.000  -0.000   0.000   0.000  -0.047   0.000   0.000   0.000  -0.000  -0.000  -0.041   0.000
 total augmentation occupancy for first ion, spin component:           2
  0.015  -0.000  -0.000  -0.000   0.000  -0.003   0.000   0.000   0.000   0.000   0.000  -0.000  -0.000  -0.000  -0.000  -0.000
 -0.000   0.017   0.000  -0.000  -0.000   0.000  -0.002  -0.000   0.000   0.000  -0.000   0.000  -0.001  -0.000  -0.000   0.000
 -0.000   0.000   0.010   0.000   0.000  -0.000  -0.000   0.001  -0.000   0.000   0.002  -0.000   0.000   0.000   0.000   0.000
 -0.000  -0.000   0.000   0.017   0.000   0.000   0.000  -0.000  -0.002  -0.000  -0.000   0.000  -0.000  -0.000  -0.001  -0.000
  0.000  -0.000   0.000   0.000   0.045   0.000   0.000   0.000  -0.000  -0.013   0.000   0.000   0.000   0.000  -0.000  -0.000
 -0.003   0.000  -0.000   0.000   0.000  -0.004  -0.000  -0.000  -0.000   0.000   0.000  -0.000   0.000   0.000   0.000   0.000
  0.000  -0.002  -0.000   0.000   0.000  -0.000  -0.005   0.000  -0.000  -0.000   0.000   0.000   0.000   0.000   0.000  -0.000
  0.000  -0.000   0.001  -0.000   0.000  -0.000   0.000  -0.008   0.000   0.000  -0.001  -0.000  -0.000  -0.000  -0.000  -0.000
  0.000   0.000  -0.000  -0.002  -0.000  -0.000  -0.000   0.000  -0.005   0.000   0.000   0.000   0.000   0.000   0.000  -0.000
  0.000   0.000   0.000  -0.000  -0.013   0.000  -0.000   0.000   0.000  -0.001   0.000   0.000  -0.000   0.000   0.000   0.000
  0.000  -0.000   0.002  -0.000   0.000   0.000   0.000  -0.001   0.000   0.000  -0.005   0.002   0.000   0.000   0.000  -0.000
 -0.000   0.000  -0.000   0.000   0.000  -0.000   0.000  -0.000   0.000   0.000   0.002  -0.001  -0.000   0.000  -0.000   0.000
 -0.000  -0.001   0.000  -0.000   0.000   0.000   0.000  -0.000   0.000  -0.000   0.000  -0.000   0.000   0.000  -0.000   0.000
 -0.000  -0.000   0.000  -0.000   0.000   0.000   0.000  -0.000   0.000   0.000   0.000   0.000   0.000  -0.000   0.000  -0.000
 -0.000  -0.000   0.000  -0.001  -0.000   0.000   0.000  -0.000   0.000   0.000   0.000  -0.000  -0.000   0.000   0.000   0.000
 -0.000   0.000   0.000  -0.000  -0.000   0.000  -0.000  -0.000  -0.000   0.000  -0.000   0.000   0.000  -0.000   0.000  -0.000
  0.000  -0.000   0.000  -0.000   0.000  -0.000  -0.000  -0.000  -0.000   0.000   0.000  -0.000   0.000   0.000   0.000  -0.000
 -0.000  -0.000   0.000   0.000   0.000   0.000  -0.000  -0.000  -0.000  -0.000  -0.000   0.000   0.000  -0.000   0.000  -0.000


------------------------ aborting loop because EDIFF is reached ----------------------------------------





 total charge

# of ion       s       p       d       f       tot
--------------------------------------------------
    1        0.456   0.567   7.744   0.000   8.767
    2        2.021   5.653   0.867   0.069   8.610
    3        0.783   0.816   0.000   0.000   1.599
    4        0.783   0.816   0.000   0.000   1.599
    5        0.792   0.851   0.000   0.000   1.643
--------------------------------------------------
tot          4.834   8.704   8.612   0.069  22.219



 magnetization (x)

# of ion       s       p       d       f       tot
--------------------------------------------------
    1        0.000   0.000   0.027   0.000   0.027
    2       -0.000  -0.000   0.000  -0.000  -0.000
    3       -0.000  -0.001   0.000   0.000  -0.001
    4       -0.000  -0.001   0.000   0.000  -0.001
    5       -0.000   0.000   0.000   0.000   0.000
--------------------------------------------------
tot         -0.000  -0.002   0.027  -0.000   0.025
 
    CHARGE:  cpu time    0.5859: real time    0.5872
    FORLOC:  cpu time    0.0020: real time    0.0014
    FORNL :  cpu time    1.4278: real time    1.4307
    STRESS:  cpu time    4.7933: real time    4.8083
    FORCOR:  cpu time    0.0250: real time    0.0247
    FORHAR:  cpu time    0.0030: real time    0.0031
    MIXING:  cpu time    0.0010: real time    0.0010
    OFIELD:  cpu time    0.0000: real time    0.0002

  FORCE on cell =-STRESS in cart. coord.  units (eV):
  Direction    XX          YY          ZZ          XY          YZ          ZX
  --------------------------------------------------------------------------------------
  Alpha Z    73.73730    73.73730    73.73730
  Ewald    -609.61288  -609.61288  -607.07749    -0.01458     0.08712     0.08712
  Hartree   120.09375   120.09375   116.45243    -0.00354    -0.00991    -0.00991
  E(xc)    -124.16751  -124.16751  -124.37526    -0.00010    -0.00149    -0.00149
  Local    -155.76113  -155.76113  -160.27491     0.01735    -0.09115    -0.09115
  n-local   259.81312   257.07894   261.23437    -0.00094     0.51282    -0.44196
  augment    91.12935    91.12935    91.79129     0.00047    -0.00661    -0.00665
  Kinetic   342.73803   349.55291   348.52568     0.00128    -0.27698     0.26226
  Fock        0.00000     0.00000     0.00000     0.00000     0.00000     0.00000
  -------------------------------------------------------------------------------------
  Total       0.01040     0.01040     0.01342     0.00037     0.00401     0.00401
  in kB       0.19819     0.19819     0.25570     0.00710     0.07643     0.07643
  external pressure =        0.22 kB  Pullay stress =        0.00 kB


 VOLUME and BASIS-vectors are now :
 -----------------------------------------------------------------------------
  energy-cutoff  :      520.00
  volume of cell :       84.06
      direct lattice vectors                 reciprocal lattice vectors
    -4.175296664 -0.000107409  0.000781902    -0.239484530  0.000025570  0.103646578
    -0.000107409 -4.175296664  0.000781902     0.000025570 -0.239484530  0.103646578
     2.086769744  2.086769744  4.821150135     0.000038836  0.000038836  0.207385767

  length of vectors
     4.175296739  4.175296739  5.652672338     0.260951057  0.260951057  0.207385774


 FORCES acting on ions
    electron-ion (+dipol)            ewald-force                    non-local-force                 convergence-correction
 -----------------------------------------------------------------------------------------------
   0.346E-01 0.346E-01 0.120E+02   -.331E-01 -.331E-01 -.131E+02   -.326E-02 -.326E-02 0.114E+01   0.336E-04 0.336E-04 -.103E-01
   -.711E-02 -.711E-02 0.107E+02   0.567E-02 0.567E-02 -.110E+02   0.225E-02 0.225E-02 0.313E+00   0.518E-04 0.518E-04 0.363E-03
   0.860E-01 0.451E-01 -.361E+02   -.745E-01 -.336E-01 0.334E+02   -.190E-01 -.176E-01 0.269E+01   0.188E-04 -.312E-04 -.223E-02
   0.451E-01 0.860E-01 -.361E+02   -.336E-01 -.745E-01 0.334E+02   -.176E-01 -.190E-01 0.269E+01   -.312E-04 0.188E-04 -.223E-02
   -.145E+00 -.145E+00 0.466E+02   0.136E+00 0.136E+00 -.427E+02   0.244E-01 0.244E-01 -.394E+01   -.122E-04 -.122E-04 0.258E-02
 -----------------------------------------------------------------------------------------------
   0.131E-01 0.131E-01 -.289E+01   -.105E-14 -.119E-14 -.142E-13   -.132E-01 -.132E-01 0.289E+01   0.608E-04 0.608E-04 -.118E-01
 
 
 POSITION                                       TOTAL-FORCE (eV/Angst)
 -----------------------------------------------------------------------------------
     -2.08872     -2.08872      1.57871        -0.001714     -0.001714     -0.001383
     -0.00194     -0.00194      0.05145         0.000872      0.000872      0.000570
     -2.08649     -0.00042      2.50191        -0.007523     -0.006113      0.022960
     -0.00042     -2.08649      2.50191        -0.006113     -0.007523      0.022960
     -0.00410     -0.00410      4.11558         0.014478      0.014478     -0.045107
 -----------------------------------------------------------------------------------
    total drift:                               -0.000047     -0.000047     -0.004051


--------------------------------------------------------------------------------------------------------



  FREE ENERGIE OF THE ION-ELECTRON SYSTEM (eV)
  ---------------------------------------------------
  free  energy   TOTEN  =       -26.68890440 eV

  energy  without entropy=      -26.68652276  energy(sigma->0) =      -26.68771358
 


--------------------------------------------------------------------------------------------------------


    POTLOK:  cpu time    0.1000: real time    0.1006


--------------------------------------------------------------------------------------------------------


 writing wavefunctions
     LOOP+:  cpu time  250.1420: real time  250.9619
    4ORBIT:  cpu time    0.0000: real time    0.0000



 total charge

# of ion       s       p       d       f       tot
--------------------------------------------------
    1        0.456   0.567   7.744   0.000   8.767
    2        2.021   5.653   0.867   0.069   8.610
    3        0.783   0.816   0.000   0.000   1.599
    4        0.783   0.816   0.000   0.000   1.599
    5        0.792   0.851   0.000   0.000   1.643
--------------------------------------------------
tot          4.834   8.704   8.612   0.069  22.219



 magnetization (x)

# of ion       s       p       d       f       tot
--------------------------------------------------
    1        0.000   0.000   0.027   0.000   0.027
    2       -0.000  -0.000   0.000  -0.000  -0.000
    3       -0.000  -0.001   0.000   0.000  -0.001
    4       -0.000  -0.001   0.000   0.000  -0.001
    5       -0.000   0.000   0.000   0.000   0.000
--------------------------------------------------
tot         -0.000  -0.002   0.027  -0.000   0.025
 

 total amount of memory used by VASP MPI-rank0   211480. kBytes
=======================================================================

   base      :      30000. kBytes
   nonl-proj :     139119. kBytes
   fftplans  :       2555. kBytes
   grid      :       2098. kBytes
   one-center:         98. kBytes
   wavefun   :      37610. kBytes
 
  
  
 General timing and accounting informations for this job:
 ========================================================
  
                  Total CPU time used (sec):      280.533
                            User time (sec):      254.044
                          System time (sec):       26.489
                         Elapsed time (sec):      284.321
  
                   Maximum memory used (kb):      201432.
                   Average memory used (kb):          0
  
                          Minor page faults:       290526
                          Major page faults:            8
                 Voluntary context switches:         2212
