 vasp.5.4.1 24Jun15 (build Nov 23 2015 09:58:10) complex                        
  
 executed on             LinuxIFC date 2020.06.08  17:25:31
 running on   48 total cores
 distrk:  each k-point on   48 cores,    1 groups
 distr:  one band on NCORES_PER_BAND=   8 cores,    6 groups


--------------------------------------------------------------------------------------------------------


 INCAR:
 POTCAR:    PAW_PBE La 06Sep2000                  
 POTCAR:    PAW_PBE W 08Apr2002                   
 POTCAR:    PAW_PBE N 08Apr2002                   
 POTCAR:    PAW_PBE La 06Sep2000                  
   VRHFIN =La : [core=Kr4d]                                                     
   LEXCH  = PE                                                                  
   EATOM  =   865.9763 eV,   63.6475 Ry                                         
                                                                                
   TITEL  = PAW_PBE La 06Sep2000                                                
   LULTRA =        F    use ultrasoft PP ?                                      
   IUNSCR =        1    unscreen: 0-lin 1-nonlin 2-no                           
   RPACOR =    2.300    partial core radius                                     
   POMASS =  138.900; ZVAL   =   11.000    mass and valenz                      
   RCORE  =    2.800    outmost cutoff radius                                   
   RWIGS  =    2.900; RWIGS  =    1.535    wigner-seitz radius (au A)           
   ENMAX  =  219.292; ENMIN  =  164.469 eV                                      
   RCLOC  =    1.601    cutoff for local pot                                    
   LCOR   =        T    correct aug charges                                     
   LPAW   =        T    paw PP                                                  
   EAUG   =  583.575                                                            
   DEXC   =    0.000                                                            
   RMAX   =    2.853    core radius for proj-oper                               
   RAUG   =    1.300    factor for augmentation sphere                          
   RDEP   =    2.802    radius for radial grids                                 
   RDEPT  =    2.156    core radius for aug-charge                              
                                                                                
   Atomic configuration                                                         
   14 entries                                                                   
     n  l   j            E        occ.                                          
     1  0  0.50    -38741.0879   2.0000                                         
     2  0  0.50     -6166.6801   2.0000                                         
     2  1  1.50     -5526.1593   6.0000                                         
     3  0  0.50     -1319.0200   2.0000                                         
     3  1  1.50     -1114.5963   6.0000                                         
     3  2  2.50      -821.1793  10.0000                                         
     4  0  0.50      -266.3851   2.0000                                         
     4  1  1.50      -199.9276   6.0000                                         
     4  2  2.50      -103.8239  10.0000                                         
     5  0  0.50       -38.9172   2.0000                                         
     6  0  0.50        -3.6792   2.0000                                         
     5  1  1.50       -22.3948   6.0000                                         
     5  2  2.50        -3.0911   0.9999                                         
     4  3  2.50        -4.3603   0.0001                                         
   Description                                                                  
     l       E           TYP  RCUT    TYP  RCUT                                 
     0    -38.9171645     23  2.800                                             
     0     -3.6792381     23  2.800                                             
     1    -22.3948300     23  2.500                                             
     1     27.2116520     23  2.500                                             
     2     -3.0910934     23  2.500                                             
     2      1.0119135     23  2.500                                             
     3     -4.3602911     23  2.800                                             
     3     -5.7208737     23  2.800                                             
  local pseudopotential read in
  partial core-charges read in
  partial kinetic energy density read in
  atomic valenz-charges read in
  non local Contribution for L=           0  read in
    real space projection operators read in
  non local Contribution for L=           0  read in
    real space projection operators read in
  non local Contribution for L=           1  read in
    real space projection operators read in
  non local Contribution for L=           1  read in
    real space projection operators read in
  non local Contribution for L=           2  read in
    real space projection operators read in
  non local Contribution for L=           2  read in
    real space projection operators read in
  non local Contribution for L=           3  read in
    real space projection operators read in
  non local Contribution for L=           3  read in
    real space projection operators read in
    PAW grid and wavefunctions read in
 
   number of l-projection  operators is LMAX  =           8
   number of lm-projection operators is LMMAX =          32
 
 POTCAR:    PAW_PBE W 08Apr2002                   
   VRHFIN =W : 6s5d                                                             
   LEXCH  = PE                                                                  
   EATOM  =   204.6103 eV,   15.0384 Ry                                         
                                                                                
   TITEL  = PAW_PBE W 08Apr2002                                                 
   LULTRA =        F    use ultrasoft PP ?                                      
   IUNSCR =        1    unscreen: 0-lin 1-nonlin 2-no                           
   RPACOR =    2.330    partial core radius                                     
   POMASS =  183.850; ZVAL   =    6.000    mass and valenz                      
   RCORE  =    2.750    outmost cutoff radius                                   
   RWIGS  =    2.750; RWIGS  =    1.455    wigner-seitz radius (au A)           
   ENMAX  =  223.057; ENMIN  =  167.293 eV                                      
   RCLOC  =    2.147    cutoff for local pot                                    
   LCOR   =        T    correct aug charges                                     
   LPAW   =        T    paw PP                                                  
   EAUG   =  373.438                                                            
   DEXC   =    0.000                                                            
   RMAX   =    2.801    core radius for proj-oper                               
   RAUG   =    1.300    factor for augmentation sphere                          
   RDEP   =    2.886    radius for radial grids                                 
   RDEPT  =    2.230    core radius for aug-charge                              
                                                                                
   Atomic configuration                                                         
   16 entries                                                                   
     n  l   j            E        occ.                                          
     1  0  0.50    -69465.5836   2.0000                                         
     2  0  0.50    -11986.2642   2.0000                                         
     2  1  1.50    -10479.8616   6.0000                                         
     3  0  0.50     -2759.0758   2.0000                                         
     3  1  1.50     -2313.1857   6.0000                                         
     3  2  2.50     -1801.1185  10.0000                                         
     4  0  0.50      -567.6791   2.0000                                         
     4  1  1.50      -421.4694   6.0000                                         
     4  2  2.50      -236.3473  10.0000                                         
     4  3  3.50       -31.2666  14.0000                                         
     5  0  0.50       -77.1085   2.0000                                         
     5  1  1.50       -41.3856   6.0000                                         
     5  2  2.50        -3.3185   5.0000                                         
     6  0  0.50        -5.1438   1.0000                                         
     6  1  0.50        -3.8096   0.0000                                         
     5  3  2.50        -1.3606   0.0000                                         
   Description                                                                  
     l       E           TYP  RCUT    TYP  RCUT                                 
     2     -3.3185288     23  2.500                                             
     2     -1.5965414     23  2.500                                             
     0     -5.1438054     23  2.500                                             
     0      4.9117504     23  2.500                                             
     1      2.7211652     23  2.750                                             
     1     27.2116520     23  2.750                                             
  local pseudopotential read in
  partial core-charges read in
  partial kinetic energy density read in
  atomic valenz-charges read in
  non local Contribution for L=           2  read in
    real space projection operators read in
  non local Contribution for L=           2  read in
    real space projection operators read in
  non local Contribution for L=           0  read in
    real space projection operators read in
  non local Contribution for L=           0  read in
    real space projection operators read in
  non local Contribution for L=           1  read in
    real space projection operators read in
  non local Contribution for L=           1  read in
    real space projection operators read in
    PAW grid and wavefunctions read in
 
   number of l-projection  operators is LMAX  =           6
   number of lm-projection operators is LMMAX =          18
 
 POTCAR:    PAW_PBE N 08Apr2002                   
   VRHFIN =N: s2p3                                                              
   LEXCH  = PE                                                                  
   EATOM  =   264.5486 eV,   19.4438 Ry                                         
                                                                                
   TITEL  = PAW_PBE N 08Apr2002                                                 
   LULTRA =        F    use ultrasoft PP ?                                      
   IUNSCR =        1    unscreen: 0-lin 1-nonlin 2-no                           
   RPACOR =    1.200    partial core radius                                     
   POMASS =   14.001; ZVAL   =    5.000    mass and valenz                      
   RCORE  =    1.500    outmost cutoff radius                                   
   RWIGS  =    1.400; RWIGS  =    0.741    wigner-seitz radius (au A)           
   ENMAX  =  400.000; ENMIN  =  300.000 eV                                      
   ICORE  =        2    local potential                                         
   LCOR   =        T    correct aug charges                                     
   LPAW   =        T    paw PP                                                  
   EAUG   =  627.112                                                            
   DEXC   =    0.000                                                            
   RMAX   =    1.529    core radius for proj-oper                               
   RAUG   =    1.300    factor for augmentation sphere                          
   RDEP   =    1.514    radius for radial grids                                 
   RDEPT  =    1.338    core radius for aug-charge                              
                                                                                
   Atomic configuration                                                         
    4 entries                                                                   
     n  l   j            E        occ.                                          
     1  0  0.50      -384.7179   2.0000                                         
     2  0  0.50       -18.5828   2.0000                                         
     2  1  0.50        -7.0898   3.0000                                         
     3  2  1.50        -6.8029   0.0000                                         
   Description                                                                  
     l       E           TYP  RCUT    TYP  RCUT                                 
     0    -18.5828119     23  1.200                                             
     0    -13.5018863     23  1.200                                             
     1     -7.0897853     23  1.500                                             
     1      9.5240782     23  1.500                                             
     2     -6.8029130      7  1.500                                             
  local pseudopotential read in
  partial core-charges read in
  partial kinetic energy density read in
  atomic valenz-charges read in
  non local Contribution for L=           0  read in
    real space projection operators read in
  non local Contribution for L=           0  read in
    real space projection operators read in
  non local Contribution for L=           1  read in
    real space projection operators read in
  non local Contribution for L=           1  read in
    real space projection operators read in
    PAW grid and wavefunctions read in
 
   number of l-projection  operators is LMAX  =           4
   number of lm-projection operators is LMMAX =           8
 
 Optimization of the real space projectors (new method)

 maximal supplied QI-value         = 13.42
 optimisation between [QCUT,QGAM] = [ 11.67, 23.35] = [ 38.16,152.62] Ry 
 Optimized for a Real-space Cutoff    1.63 Angstroem

   l    n(q)    QCUT    max X(q) W(low)/X(q) W(high)/X(q)  e(spline) 
   0     11    11.673    13.882    0.27E-04    0.79E-05    0.11E-06
   0     11    11.673    12.184    0.39E-04    0.13E-04    0.19E-06
   1     11    11.673     4.523    0.73E-05    0.76E-05    0.12E-06
   1     11    11.673     4.424    0.87E-05    0.13E-04    0.19E-06
   2     10    11.673    52.481    0.65E-04    0.36E-04    0.18E-06
   2     10    11.673    38.501    0.61E-04    0.33E-04    0.17E-06
   3     10    11.673    65.631    0.17E-03    0.14E-03    0.37E-06
   3     10    11.673    56.854    0.17E-03    0.14E-03    0.37E-06
 Optimization of the real space projectors (new method)

 maximal supplied QI-value         = 13.61
 optimisation between [QCUT,QGAM] = [ 11.57, 23.27] = [ 37.45,151.59] Ry 
 Optimized for a Real-space Cutoff    1.53 Angstroem

   l    n(q)    QCUT    max X(q) W(low)/X(q) W(high)/X(q)  e(spline) 
   2     10    11.565   130.855    0.24E-03    0.66E-03    0.14E-05
   2     10    11.565   114.007    0.24E-03    0.66E-03    0.14E-05
   0     11    11.565    84.709    0.46E-04    0.91E-04    0.49E-06
   0     11    11.565    49.163    0.42E-04    0.83E-04    0.45E-06
   1     10    11.565    15.765    0.13E-03    0.22E-03    0.67E-06
   1     10    11.565    10.638    0.10E-03    0.17E-03    0.52E-06
 Optimization of the real space projectors (new method)

 maximal supplied QI-value         = 25.13
 optimisation between [QCUT,QGAM] = [ 11.56, 23.12] = [ 37.43,149.72] Ry 
 Optimized for a Real-space Cutoff    1.40 Angstroem

   l    n(q)    QCUT    max X(q) W(low)/X(q) W(high)/X(q)  e(spline) 
   0     10    11.561    79.467    0.46E-04    0.78E-04    0.61E-06
   0     10    11.561    66.151    0.45E-04    0.77E-04    0.61E-06
   1      9    11.561    18.886    0.22E-03    0.13E-03    0.12E-05
   1      9    11.561    13.488    0.23E-03    0.13E-03    0.12E-05
  PAW_PBE La 06Sep2000                  :
 energy of atom  1       EATOM= -865.9763
 kinetic energy error for atom=    0.0009 (will be added to EATOM!!)
  PAW_PBE W 08Apr2002                   :
 energy of atom  2       EATOM= -204.6103
 kinetic energy error for atom=    0.0014 (will be added to EATOM!!)
  PAW_PBE N 08Apr2002                   :
 energy of atom  3       EATOM= -264.5486
 kinetic energy error for atom=    0.0125 (will be added to EATOM!!)
 
 
 POSCAR: La4 W4 N12                              
  positions in direct lattice
  velocities in cartesian coordinates
 exchange correlation table for  LEXCH =        8
   RHO(1)=    0.500       N(1)  =     2000
   RHO(2)=  100.500       N(2)  =     4000
 


--------------------------------------------------------------------------------------------------------


 ion  position               nearest neighbor table
   1  0.491  0.002  0.250-  17 2.56  10 2.64  16 2.64  15 2.71   9 2.71   8 3.43   6 3.43   5 3.48
                             7 3.48   5 3.51   7 3.51   8 3.52   6 3.52
   2  0.991  0.498  0.250-  18 2.56  15 2.64   9 2.64  10 2.71  16 2.71   7 3.43   5 3.43   8 3.48
                             6 3.48   8 3.51   6 3.51   7 3.52   5 3.52
   3  0.509  0.998  0.750-  19 2.56  14 2.64  12 2.64  11 2.71  13 2.71   8 3.43   6 3.43   5 3.48
                             7 3.48   7 3.51   5 3.51   6 3.52   8 3.52
   4  0.009  0.502  0.750-  20 2.56  13 2.64  11 2.64  14 2.71  12 2.71   7 3.43   5 3.43   8 3.48
                             6 3.48   6 3.51   8 3.51   5 3.52   7 3.52
   5  0.500  0.500  0.000-  14 2.02  10 2.02  19 2.03  17 2.03  11 2.04  15 2.04   4 3.43   2 3.43
                             1 3.48   3 3.48   3 3.51   1 3.51   4 3.52   2 3.52
   6  0.000  0.000  0.500-   9 2.02  13 2.02  18 2.03  20 2.03  16 2.04  12 2.04   3 3.43   1 3.43
                             2 3.48   4 3.48   4 3.51   2 3.51   3 3.52   1 3.52
   7  0.500  0.500  0.500-  12 2.02  16 2.02  19 2.03  17 2.03  13 2.04   9 2.04   4 3.43   2 3.43
                             1 3.48   3 3.48   3 3.51   1 3.51   4 3.52   2 3.52
   8  0.000  0.000  0.000-  11 2.02  15 2.02  18 2.03  20 2.03  10 2.04  14 2.04   3 3.43   1 3.43
                             2 3.48   4 3.48   4 3.51   2 3.51   3 3.52   1 3.52
   9  0.238  0.260  0.471-   6 2.02   7 2.04   2 2.64   1 2.71
  10  0.738  0.240  0.029-   5 2.02   8 2.04   1 2.64   2 2.71
  11  0.762  0.740  0.971-   8 2.02   5 2.04   4 2.64   3 2.71
  12  0.262  0.760  0.529-   7 2.02   6 2.04   3 2.64   4 2.71
  13  0.762  0.740  0.529-   6 2.02   7 2.04   4 2.64   3 2.71
  14  0.262  0.760  0.971-   5 2.02   8 2.04   3 2.64   4 2.71
  15  0.238  0.260  0.029-   8 2.02   5 2.04   2 2.64   1 2.71
  16  0.738  0.240  0.471-   7 2.02   6 2.04   1 2.64   2 2.71
  17  0.502  0.555  0.250-   5 2.03   7 2.03   1 2.56
  18  0.002  0.945  0.250-   6 2.03   8 2.03   2 2.56
  19  0.498  0.445  0.750-   5 2.03   7 2.03   3 2.56
  20  0.998  0.055  0.750-   6 2.03   8 2.03   4 2.56
 
  LATTYP: Found a simple orthorhombic cell.
 ALAT       =     5.6720776805
 B/A-ratio  =     1.0091222780
 C/A-ratio  =     1.4133377660
  
  Lattice vectors:
  
 A1 = (   5.6720776805,   0.0000000000,   0.0000000000)
 A2 = (   0.0000000000,   5.7238199497,   0.0000000000)
 A3 = (   0.0000000000,   0.0000000000,   8.0165615975)


Analysis of symmetry for initial positions (statically):
=====================================================================
 Subroutine PRICEL returns:
 Original cell was already a primitive cell.
 

 Routine SETGRP: Setting up the symmetry group for a 
 simple orthorhombic supercell.


 Subroutine GETGRP returns: Found  8 space group operations
 (whereof  2 operations were pure point group operations)
 out of a pool of  8 trial point group operations.


The static configuration has the point symmetry S_2 .
 The point group associated with its full space group is D_2h.


Analysis of symmetry for dynamics (positions and initial velocities):
=====================================================================
 Subroutine PRICEL returns:
 Original cell was already a primitive cell.
 

 Routine SETGRP: Setting up the symmetry group for a 
 simple orthorhombic supercell.


 Subroutine GETGRP returns: Found  8 space group operations
 (whereof  2 operations were pure point group operations)
 out of a pool of  8 trial point group operations.


The dynamic configuration has the point symmetry S_2 .
 The point group associated with its full space group is D_2h.
 
 
 KPOINTS: K-Mesh                                  

Automatic generation of k-mesh.
Space group operators:
 irot       det(A)        alpha          n_x          n_y          n_z        tau_x        tau_y        tau_z
    1     1.000000     0.000000     1.000000     0.000000     0.000000     0.000000     0.000000     0.000000
    2    -1.000000     0.000000     1.000000     0.000000     0.000000     0.000000     0.000000     0.000000
    3     1.000000   180.000000     0.000000     0.000000     1.000000     0.000000     0.000000     0.500000
    4    -1.000000   180.000000     0.000000     0.000000     1.000000     0.000000     0.000000     0.500000
    5     1.000000   179.999999     0.000000     1.000000     0.000000     0.500000     0.500000     0.000000
    6    -1.000000   179.999999     0.000000     1.000000     0.000000     0.500000     0.500000     0.000000
    7     1.000000   180.000000     1.000000     0.000000     0.000000     0.500000     0.500000     0.500000
    8    -1.000000   180.000000     1.000000     0.000000     0.000000     0.500000     0.500000     0.500000
 
 Subroutine IBZKPT returns following result:
 ===========================================
 
 Found    100 irreducible k-points:
 
 Following reciprocal coordinates:
            Coordinates               Weight
  0.000000  0.000000  0.000000      1.000000
  0.111111  0.000000  0.000000      2.000000
  0.222222  0.000000  0.000000      2.000000
  0.333333  0.000000  0.000000      2.000000
  0.444444  0.000000  0.000000      2.000000
  0.000000  0.166667  0.000000      2.000000
  0.111111  0.166667  0.000000      4.000000
  0.222222  0.166667  0.000000      4.000000
  0.333333  0.166667  0.000000      4.000000
  0.444444  0.166667  0.000000      4.000000
  0.000000  0.333333  0.000000      2.000000
  0.111111  0.333333  0.000000      4.000000
  0.222222  0.333333  0.000000      4.000000
  0.333333  0.333333  0.000000      4.000000
  0.444444  0.333333  0.000000      4.000000
  0.000000  0.500000  0.000000      1.000000
  0.111111  0.500000  0.000000      2.000000
  0.222222  0.500000  0.000000      2.000000
  0.333333  0.500000  0.000000      2.000000
  0.444444  0.500000  0.000000      2.000000
  0.000000  0.000000  0.111111      2.000000
  0.111111  0.000000  0.111111      4.000000
  0.222222  0.000000  0.111111      4.000000
  0.333333  0.000000  0.111111      4.000000
  0.444444  0.000000  0.111111      4.000000
  0.000000  0.166667  0.111111      4.000000
  0.111111  0.166667  0.111111      8.000000
  0.222222  0.166667  0.111111      8.000000
  0.333333  0.166667  0.111111      8.000000
  0.444444  0.166667  0.111111      8.000000
  0.000000  0.333333  0.111111      4.000000
  0.111111  0.333333  0.111111      8.000000
  0.222222  0.333333  0.111111      8.000000
  0.333333  0.333333  0.111111      8.000000
  0.444444  0.333333  0.111111      8.000000
  0.000000  0.500000  0.111111      2.000000
  0.111111  0.500000  0.111111      4.000000
  0.222222  0.500000  0.111111      4.000000
  0.333333  0.500000  0.111111      4.000000
  0.444444  0.500000  0.111111      4.000000
  0.000000  0.000000  0.222222      2.000000
  0.111111  0.000000  0.222222      4.000000
  0.222222  0.000000  0.222222      4.000000
  0.333333  0.000000  0.222222      4.000000
  0.444444  0.000000  0.222222      4.000000
  0.000000  0.166667  0.222222      4.000000
  0.111111  0.166667  0.222222      8.000000
  0.222222  0.166667  0.222222      8.000000
  0.333333  0.166667  0.222222      8.000000
  0.444444  0.166667  0.222222      8.000000
  0.000000  0.333333  0.222222      4.000000
  0.111111  0.333333  0.222222      8.000000
  0.222222  0.333333  0.222222      8.000000
  0.333333  0.333333  0.222222      8.000000
  0.444444  0.333333  0.222222      8.000000
  0.000000  0.500000  0.222222      2.000000
  0.111111  0.500000  0.222222      4.000000
  0.222222  0.500000  0.222222      4.000000
  0.333333  0.500000  0.222222      4.000000
  0.444444  0.500000  0.222222      4.000000
  0.000000  0.000000  0.333333      2.000000
  0.111111  0.000000  0.333333      4.000000
  0.222222  0.000000  0.333333      4.000000
  0.333333  0.000000  0.333333      4.000000
  0.444444  0.000000  0.333333      4.000000
  0.000000  0.166667  0.333333      4.000000
  0.111111  0.166667  0.333333      8.000000
  0.222222  0.166667  0.333333      8.000000
  0.333333  0.166667  0.333333      8.000000
  0.444444  0.166667  0.333333      8.000000
  0.000000  0.333333  0.333333      4.000000
  0.111111  0.333333  0.333333      8.000000
  0.222222  0.333333  0.333333      8.000000
  0.333333  0.333333  0.333333      8.000000
  0.444444  0.333333  0.333333      8.000000
  0.000000  0.500000  0.333333      2.000000
  0.111111  0.500000  0.333333      4.000000
  0.222222  0.500000  0.333333      4.000000
  0.333333  0.500000  0.333333      4.000000
  0.444444  0.500000  0.333333      4.000000
  0.000000  0.000000  0.444444      2.000000
  0.111111  0.000000  0.444444      4.000000
  0.222222  0.000000  0.444444      4.000000
  0.333333  0.000000  0.444444      4.000000
  0.444444  0.000000  0.444444      4.000000
  0.000000  0.166667  0.444444      4.000000
  0.111111  0.166667  0.444444      8.000000
  0.222222  0.166667  0.444444      8.000000
  0.333333  0.166667  0.444444      8.000000
  0.444444  0.166667  0.444444      8.000000
  0.000000  0.333333  0.444444      4.000000
  0.111111  0.333333  0.444444      8.000000
  0.222222  0.333333  0.444444      8.000000
  0.333333  0.333333  0.444444      8.000000
  0.444444  0.333333  0.444444      8.000000
  0.000000  0.500000  0.444444      2.000000
  0.111111  0.500000  0.444444      4.000000
  0.222222  0.500000  0.444444      4.000000
  0.333333  0.500000  0.444444      4.000000
  0.444444  0.500000  0.444444      4.000000
 
 Following cartesian coordinates:
            Coordinates               Weight
  0.000000  0.000000  0.000000      1.000000
  0.019589  0.000000  0.000000      2.000000
  0.039178  0.000000  0.000000      2.000000
  0.058767  0.000000  0.000000      2.000000
  0.078357  0.000000  0.000000      2.000000
  0.000000  0.029118  0.000000      2.000000
  0.019589  0.029118  0.000000      4.000000
  0.039178  0.029118  0.000000      4.000000
  0.058767  0.029118  0.000000      4.000000
  0.078357  0.029118  0.000000      4.000000
  0.000000  0.058236  0.000000      2.000000
  0.019589  0.058236  0.000000      4.000000
  0.039178  0.058236  0.000000      4.000000
  0.058767  0.058236  0.000000      4.000000
  0.078357  0.058236  0.000000      4.000000
  0.000000  0.087354  0.000000      1.000000
  0.019589  0.087354  0.000000      2.000000
  0.039178  0.087354  0.000000      2.000000
  0.058767  0.087354  0.000000      2.000000
  0.078357  0.087354  0.000000      2.000000
  0.000000  0.000000  0.013860      2.000000
  0.019589  0.000000  0.013860      4.000000
  0.039178  0.000000  0.013860      4.000000
  0.058767  0.000000  0.013860      4.000000
  0.078357  0.000000  0.013860      4.000000
  0.000000  0.029118  0.013860      4.000000
  0.019589  0.029118  0.013860      8.000000
  0.039178  0.029118  0.013860      8.000000
  0.058767  0.029118  0.013860      8.000000
  0.078357  0.029118  0.013860      8.000000
  0.000000  0.058236  0.013860      4.000000
  0.019589  0.058236  0.013860      8.000000
  0.039178  0.058236  0.013860      8.000000
  0.058767  0.058236  0.013860      8.000000
  0.078357  0.058236  0.013860      8.000000
  0.000000  0.087354  0.013860      2.000000
  0.019589  0.087354  0.013860      4.000000
  0.039178  0.087354  0.013860      4.000000
  0.058767  0.087354  0.013860      4.000000
  0.078357  0.087354  0.013860      4.000000
  0.000000  0.000000  0.027720      2.000000
  0.019589  0.000000  0.027720      4.000000
  0.039178  0.000000  0.027720      4.000000
  0.058767  0.000000  0.027720      4.000000
  0.078357  0.000000  0.027720      4.000000
  0.000000  0.029118  0.027720      4.000000
  0.019589  0.029118  0.027720      8.000000
  0.039178  0.029118  0.027720      8.000000
  0.058767  0.029118  0.027720      8.000000
  0.078357  0.029118  0.027720      8.000000
  0.000000  0.058236  0.027720      4.000000
  0.019589  0.058236  0.027720      8.000000
  0.039178  0.058236  0.027720      8.000000
  0.058767  0.058236  0.027720      8.000000
  0.078357  0.058236  0.027720      8.000000
  0.000000  0.087354  0.027720      2.000000
  0.019589  0.087354  0.027720      4.000000
  0.039178  0.087354  0.027720      4.000000
  0.058767  0.087354  0.027720      4.000000
  0.078357  0.087354  0.027720      4.000000
  0.000000  0.000000  0.041581      2.000000
  0.019589  0.000000  0.041581      4.000000
  0.039178  0.000000  0.041581      4.000000
  0.058767  0.000000  0.041581      4.000000
  0.078357  0.000000  0.041581      4.000000
  0.000000  0.029118  0.041581      4.000000
  0.019589  0.029118  0.041581      8.000000
  0.039178  0.029118  0.041581      8.000000
  0.058767  0.029118  0.041581      8.000000
  0.078357  0.029118  0.041581      8.000000
  0.000000  0.058236  0.041581      4.000000
  0.019589  0.058236  0.041581      8.000000
  0.039178  0.058236  0.041581      8.000000
  0.058767  0.058236  0.041581      8.000000
  0.078357  0.058236  0.041581      8.000000
  0.000000  0.087354  0.041581      2.000000
  0.019589  0.087354  0.041581      4.000000
  0.039178  0.087354  0.041581      4.000000
  0.058767  0.087354  0.041581      4.000000
  0.078357  0.087354  0.041581      4.000000
  0.000000  0.000000  0.055441      2.000000
  0.019589  0.000000  0.055441      4.000000
  0.039178  0.000000  0.055441      4.000000
  0.058767  0.000000  0.055441      4.000000
  0.078357  0.000000  0.055441      4.000000
  0.000000  0.029118  0.055441      4.000000
  0.019589  0.029118  0.055441      8.000000
  0.039178  0.029118  0.055441      8.000000
  0.058767  0.029118  0.055441      8.000000
  0.078357  0.029118  0.055441      8.000000
  0.000000  0.058236  0.055441      4.000000
  0.019589  0.058236  0.055441      8.000000
  0.039178  0.058236  0.055441      8.000000
  0.058767  0.058236  0.055441      8.000000
  0.078357  0.058236  0.055441      8.000000
  0.000000  0.087354  0.055441      2.000000
  0.019589  0.087354  0.055441      4.000000
  0.039178  0.087354  0.055441      4.000000
  0.058767  0.087354  0.055441      4.000000
  0.078357  0.087354  0.055441      4.000000
 


--------------------------------------------------------------------------------------------------------




 Dimension of arrays:
   k-points           NKPTS =    100   k-points in BZ     NKDIM =    100   number of bands    NBANDS=     78
   number of dos      NEDOS =    301   number of ions     NIONS =     20
   non local maximal  LDIM  =      8   non local SUM 2l+1 LMDIM =     32
   total plane-waves  NPLWV = 120960
   max r-space proj   IRMAX =   8437   max aug-charges    IRDMAX= 212404
   dimension x,y,z NGX =    42 NGY =   48 NGZ =   60
   dimension x,y,z NGXF=    84 NGYF=   96 NGZF=  120
   support grid    NGXF=   168 NGYF=  192 NGZF=  240
   ions per type =               4   4  12
 NGX,Y,Z   is equivalent  to a cutoff of  12.31, 13.94, 12.44 a.u.
 NGXF,Y,Z  is equivalent  to a cutoff of  24.62, 27.88, 24.89 a.u.


 I would recommend the setting:
   dimension x,y,z NGX =    42 NGY =   43 NGZ =   60
 SYSTEM =  matgen-scf                              
 POSCAR =  La4 W4 N12                              

 Startparameter for this run:
   NWRITE =      2    write-flag & timer
   PREC   = accura    normal or accurate (medium, high low for compatibility)
   ISTART =      0    job   : 0-new  1-cont  2-samecut
   ICHARG =      2    charge: 1-file 2-atom 10-const
   ISPIN  =      1    spin polarized calculation?
   LNONCOLLINEAR =      F non collinear calculations
   LSORBIT =      F    spin-orbit coupling
   INIWAV =      1    electr: 0-lowe 1-rand  2-diag
   LASPH  =      F    aspherical Exc in radial PAW
   METAGGA=      F    non-selfconsistent MetaGGA calc.

 Electronic Relaxation 1
   ENCUT  =  520.0 eV  38.22 Ry    6.18 a.u.  10.55 10.64 14.91*2*pi/ulx,y,z
   ENINI  =  520.0     initial cutoff
   ENAUG  =  627.1 eV  augmentation charge cutoff
   NELM   =    140;   NELMIN=  6; NELMDL= -5     # of ELM steps 
   EDIFF  = 0.1E-03   stopping-criterion for ELM
   LREAL  =      T    real-space projection
   NLSPLINE    = F    spline interpolate recip. space projectors
   LCOMPAT=      F    compatible to vasp.4.4
   GGA_COMPAT  = T    GGA compatible to vasp.4.4-vasp.4.6
   LMAXPAW     = -100 max onsite density
   LMAXMIX     =    6 max onsite mixed and CHGCAR
   VOSKOWN=      0    Vosko Wilk Nusair interpolation
   ROPT   =   -0.00025  -0.00025  -0.00025
 Ionic relaxation
   EDIFFG = -.1E-01   stopping-criterion for IOM
   NSW    =      0    number of steps for IOM
   NBLOCK =      1;   KBLOCK =      1    inner block; outer block 
   IBRION =     -1    ionic relax: 0-MD 1-quasi-New 2-CG
   NFREE  =      0    steps in history (QN), initial steepest desc. (CG)
   ISIF   =      2    stress and relaxation
   IWAVPR =     10    prediction:  0-non 1-charg 2-wave 3-comb
   ISYM   =      2    0-nonsym 1-usesym 2-fastsym
   LCORR  =      T    Harris-Foulkes like correction to forces

   POTIM  = 0.0500    time-step for ionic-motion
   TEIN   =    0.0    initial temperature
   TEBEG  =    0.0;   TEEND  =   0.0 temperature during run
   SMASS  =  -3.00    Nose mass-parameter (am)
   estimated Nose-frequenzy (Omega)   =  0.10E-29 period in steps =****** mass=  -0.735E-27a.u.
   SCALEE = 1.0000    scale energy and forces
   NPACO  =    256;   APACO  = 16.0  distance and # of slots for P.C.
   PSTRESS=    0.0 pullay stress

  Mass of Ions in am
   POMASS = 138.90183.85 14.00
  Ionic Valenz
   ZVAL   =  11.00  6.00  5.00
  Atomic Wigner-Seitz radii
   RWIGS  =  -1.00 -1.00 -1.00
  virtual crystal weights 
   VCA    =   1.00  1.00  1.00
   NELECT =     128.0000    total number of electrons
   NUPDOWN=      -1.0000    fix difference up-down

 DOS related values:
   EMIN   =  10.00;   EMAX   =-10.00  energy-range for DOS
   EFERMI =   0.00
   ISMEAR =     0;   SIGMA  =   0.05  broadening in eV -4-tet -1-fermi 0-gaus

 Electronic relaxation 2 (details)
   IALGO  =     38    algorithm
   LDIAG  =      T    sub-space diagonalisation (order eigenvalues)
   LSUBROT=      F    optimize rotation matrix (better conditioning)
   TURBO    =      0    0=normal 1=particle mesh
   IRESTART =      0    0=no restart 2=restart with 2 vectors
   NREBOOT  =      0    no. of reboots
   NMIN     =      0    reboot dimension
   EREF     =   0.00    reference energy to select bands
   IMIX   =      4    mixing-type and parameters
     AMIX     =   0.10;   BMIX     =  1.20
     AMIX_MAG =   0.40;   BMIX_MAG =  1.20
     AMIN     =   0.10
     WC   =   100.;   INIMIX=   1;  MIXPRE=   1;  MAXMIX= -45

 Intra band minimization:
   WEIMIN = 0.0000     energy-eigenvalue tresh-hold
   EBREAK =  0.32E-06  absolut break condition
   DEPER  =   0.30     relativ break condition  

   TIME   =   0.40     timestep for ELM

  volume/ion in A,a.u.               =      13.01        87.82
  Fermi-wavevector in a.u.,A,eV,Ry     =   1.292229  2.441958 22.719758  1.669855
  Thomas-Fermi vector in A             =   2.423950
 
 Write flags
   LWAVE  =      F    write WAVECAR
   LCHARG =      T    write CHGCAR
   LVTOT  =      F    write LOCPOT, total local potential
   LVHAR  =      F    write LOCPOT, Hartree potential only
   LELF   =      F    write electronic localiz. function (ELF)
   LORBIT =     11    0 simple, 1 ext, 2 COOP (PROOUT)


 Dipole corrections
   LMONO  =      F    monopole corrections only (constant potential shift)
   LDIPOL =      F    correct potential (dipole corrections)
   IDIPOL =      0    1-x, 2-y, 3-z, 4-all directions 
   EPSILON=  1.0000000 bulk dielectric constant

 LDA+U is selected, type is set to LDAUTYPE =  2
   angular momentum for each species LDAUL =     3    2   -1
   U (eV)           for each species LDAUU =   7.5  2.2  0.0
   J (eV)           for each species LDAUJ =   0.0  0.0  0.0
 Exchange correlation treatment:
   GGA     =    --    GGA type
   LEXCH   =     8    internal setting for exchange type
   VOSKOWN=      0    Vosko Wilk Nusair interpolation
   LHFCALC =     F    Hartree Fock is set to
   LHFONE  =     F    Hartree Fock one center treatment
   AEXX    =    0.0000 exact exchange contribution

 Linear response parameters
   LEPSILON=     F    determine dielectric tensor
   LRPA    =     F    only Hartree local field effects (RPA)
   LNABLA  =     F    use nabla operator in PAW spheres
   LVEL    =     F    velocity operator in full k-point grid
   LINTERFAST=   F  fast interpolation
   KINTER  =     0    interpolate to denser k-point grid
   CSHIFT  =0.1000    complex shift for real part using Kramers Kronig
   OMEGAMAX=  -1.0    maximum frequency
   DEG_THRESHOLD= 0.2000000E-02 threshold for treating states as degnerate
   RTIME   =    0.100 relaxation time in fs

 Orbital magnetization related:
   ORBITALMAG=     F  switch on orbital magnetization
   LCHIMAG   =     F  perturbation theory with respect to B field
   DQ        =  0.001000  dq finite difference perturbation B field



--------------------------------------------------------------------------------------------------------


 Static calculation
 charge density and potential will be updated during run
 non-spin polarized calculation
 Variant of blocked Davidson
 Davidson routine will perform the subspace rotation
 perform sub-space diagonalisation
    after iterative eigenvector-optimisation
 modified Broyden-mixing scheme, WC =      100.0
 initial mixing is a Kerker type mixing with AMIX =  0.1000 and BMIX =      1.2000
 Hartree-type preconditioning will be used
 using additional bands           14
 real space projection scheme for non local part
 use partial core corrections
 calculate Harris-corrections to forces 
   (improved forces if not selfconsistent)
 use gradient corrections 
 use of overlap-Matrix (Vanderbilt PP)
 Gauss-broadening in eV      SIGMA  =   0.05


--------------------------------------------------------------------------------------------------------


  energy-cutoff  :      520.00
  volume of cell :      260.27
      direct lattice vectors                 reciprocal lattice vectors
     5.672077681  0.000000000  0.000000000     0.176302240  0.000000000  0.000000000
     0.000000000  5.723819950  0.000000000     0.000000000  0.174708500  0.000000000
     0.000000000  0.000000000  8.016561598     0.000000000  0.000000000  0.124741760

  length of vectors
     5.672077681  5.723819950  8.016561598     0.176302240  0.174708500  0.124741760


 
 k-points in units of 2pi/SCALE and weight: K-Mesh                                  
   0.00000000  0.00000000  0.00000000       0.002
   0.01958914  0.00000000  0.00000000       0.004
   0.03917828  0.00000000  0.00000000       0.004
   0.05876741  0.00000000  0.00000000       0.004
   0.07835655  0.00000000  0.00000000       0.004
   0.00000000  0.02911808  0.00000000       0.004
   0.01958914  0.02911808  0.00000000       0.008
   0.03917828  0.02911808  0.00000000       0.008
   0.05876741  0.02911808  0.00000000       0.008
   0.07835655  0.02911808  0.00000000       0.008
   0.00000000  0.05823617  0.00000000       0.004
   0.01958914  0.05823617  0.00000000       0.008
   0.03917828  0.05823617  0.00000000       0.008
   0.05876741  0.05823617  0.00000000       0.008
   0.07835655  0.05823617  0.00000000       0.008
   0.00000000  0.08735425  0.00000000       0.002
   0.01958914  0.08735425  0.00000000       0.004
   0.03917828  0.08735425  0.00000000       0.004
   0.05876741  0.08735425  0.00000000       0.004
   0.07835655  0.08735425  0.00000000       0.004
   0.00000000  0.00000000  0.01386020       0.004
   0.01958914  0.00000000  0.01386020       0.008
   0.03917828  0.00000000  0.01386020       0.008
   0.05876741  0.00000000  0.01386020       0.008
   0.07835655  0.00000000  0.01386020       0.008
   0.00000000  0.02911808  0.01386020       0.008
   0.01958914  0.02911808  0.01386020       0.016
   0.03917828  0.02911808  0.01386020       0.016
   0.05876741  0.02911808  0.01386020       0.016
   0.07835655  0.02911808  0.01386020       0.016
   0.00000000  0.05823617  0.01386020       0.008
   0.01958914  0.05823617  0.01386020       0.016
   0.03917828  0.05823617  0.01386020       0.016
   0.05876741  0.05823617  0.01386020       0.016
   0.07835655  0.05823617  0.01386020       0.016
   0.00000000  0.08735425  0.01386020       0.004
   0.01958914  0.08735425  0.01386020       0.008
   0.03917828  0.08735425  0.01386020       0.008
   0.05876741  0.08735425  0.01386020       0.008
   0.07835655  0.08735425  0.01386020       0.008
   0.00000000  0.00000000  0.02772039       0.004
   0.01958914  0.00000000  0.02772039       0.008
   0.03917828  0.00000000  0.02772039       0.008
   0.05876741  0.00000000  0.02772039       0.008
   0.07835655  0.00000000  0.02772039       0.008
   0.00000000  0.02911808  0.02772039       0.008
   0.01958914  0.02911808  0.02772039       0.016
   0.03917828  0.02911808  0.02772039       0.016
   0.05876741  0.02911808  0.02772039       0.016
   0.07835655  0.02911808  0.02772039       0.016
   0.00000000  0.05823617  0.02772039       0.008
   0.01958914  0.05823617  0.02772039       0.016
   0.03917828  0.05823617  0.02772039       0.016
   0.05876741  0.05823617  0.02772039       0.016
   0.07835655  0.05823617  0.02772039       0.016
   0.00000000  0.08735425  0.02772039       0.004
   0.01958914  0.08735425  0.02772039       0.008
   0.03917828  0.08735425  0.02772039       0.008
   0.05876741  0.08735425  0.02772039       0.008
   0.07835655  0.08735425  0.02772039       0.008
   0.00000000  0.00000000  0.04158059       0.004
   0.01958914  0.00000000  0.04158059       0.008
   0.03917828  0.00000000  0.04158059       0.008
   0.05876741  0.00000000  0.04158059       0.008
   0.07835655  0.00000000  0.04158059       0.008
   0.00000000  0.02911808  0.04158059       0.008
   0.01958914  0.02911808  0.04158059       0.016
   0.03917828  0.02911808  0.04158059       0.016
   0.05876741  0.02911808  0.04158059       0.016
   0.07835655  0.02911808  0.04158059       0.016
   0.00000000  0.05823617  0.04158059       0.008
   0.01958914  0.05823617  0.04158059       0.016
   0.03917828  0.05823617  0.04158059       0.016
   0.05876741  0.05823617  0.04158059       0.016
   0.07835655  0.05823617  0.04158059       0.016
   0.00000000  0.08735425  0.04158059       0.004
   0.01958914  0.08735425  0.04158059       0.008
   0.03917828  0.08735425  0.04158059       0.008
   0.05876741  0.08735425  0.04158059       0.008
   0.07835655  0.08735425  0.04158059       0.008
   0.00000000  0.00000000  0.05544078       0.004
   0.01958914  0.00000000  0.05544078       0.008
   0.03917828  0.00000000  0.05544078       0.008
   0.05876741  0.00000000  0.05544078       0.008
   0.07835655  0.00000000  0.05544078       0.008
   0.00000000  0.02911808  0.05544078       0.008
   0.01958914  0.02911808  0.05544078       0.016
   0.03917828  0.02911808  0.05544078       0.016
   0.05876741  0.02911808  0.05544078       0.016
   0.07835655  0.02911808  0.05544078       0.016
   0.00000000  0.05823617  0.05544078       0.008
   0.01958914  0.05823617  0.05544078       0.016
   0.03917828  0.05823617  0.05544078       0.016
   0.05876741  0.05823617  0.05544078       0.016
   0.07835655  0.05823617  0.05544078       0.016
   0.00000000  0.08735425  0.05544078       0.004
   0.01958914  0.08735425  0.05544078       0.008
   0.03917828  0.08735425  0.05544078       0.008
   0.05876741  0.08735425  0.05544078       0.008
   0.07835655  0.08735425  0.05544078       0.008
 
 k-points in reciprocal lattice and weights: K-Mesh                                  
   0.00000000  0.00000000  0.00000000       0.002
   0.11111111  0.00000000  0.00000000       0.004
   0.22222222  0.00000000  0.00000000       0.004
   0.33333333  0.00000000  0.00000000       0.004
   0.44444444  0.00000000  0.00000000       0.004
   0.00000000  0.16666667  0.00000000       0.004
   0.11111111  0.16666667  0.00000000       0.008
   0.22222222  0.16666667  0.00000000       0.008
   0.33333333  0.16666667  0.00000000       0.008
   0.44444444  0.16666667  0.00000000       0.008
   0.00000000  0.33333333  0.00000000       0.004
   0.11111111  0.33333333  0.00000000       0.008
   0.22222222  0.33333333  0.00000000       0.008
   0.33333333  0.33333333  0.00000000       0.008
   0.44444444  0.33333333  0.00000000       0.008
   0.00000000  0.50000000  0.00000000       0.002
   0.11111111  0.50000000  0.00000000       0.004
   0.22222222  0.50000000  0.00000000       0.004
   0.33333333  0.50000000  0.00000000       0.004
   0.44444444  0.50000000  0.00000000       0.004
   0.00000000  0.00000000  0.11111111       0.004
   0.11111111  0.00000000  0.11111111       0.008
   0.22222222  0.00000000  0.11111111       0.008
   0.33333333  0.00000000  0.11111111       0.008
   0.44444444  0.00000000  0.11111111       0.008
   0.00000000  0.16666667  0.11111111       0.008
   0.11111111  0.16666667  0.11111111       0.016
   0.22222222  0.16666667  0.11111111       0.016
   0.33333333  0.16666667  0.11111111       0.016
   0.44444444  0.16666667  0.11111111       0.016
   0.00000000  0.33333333  0.11111111       0.008
   0.11111111  0.33333333  0.11111111       0.016
   0.22222222  0.33333333  0.11111111       0.016
   0.33333333  0.33333333  0.11111111       0.016
   0.44444444  0.33333333  0.11111111       0.016
   0.00000000  0.50000000  0.11111111       0.004
   0.11111111  0.50000000  0.11111111       0.008
   0.22222222  0.50000000  0.11111111       0.008
   0.33333333  0.50000000  0.11111111       0.008
   0.44444444  0.50000000  0.11111111       0.008
   0.00000000  0.00000000  0.22222222       0.004
   0.11111111  0.00000000  0.22222222       0.008
   0.22222222  0.00000000  0.22222222       0.008
   0.33333333  0.00000000  0.22222222       0.008
   0.44444444  0.00000000  0.22222222       0.008
   0.00000000  0.16666667  0.22222222       0.008
   0.11111111  0.16666667  0.22222222       0.016
   0.22222222  0.16666667  0.22222222       0.016
   0.33333333  0.16666667  0.22222222       0.016
   0.44444444  0.16666667  0.22222222       0.016
   0.00000000  0.33333333  0.22222222       0.008
   0.11111111  0.33333333  0.22222222       0.016
   0.22222222  0.33333333  0.22222222       0.016
   0.33333333  0.33333333  0.22222222       0.016
   0.44444444  0.33333333  0.22222222       0.016
   0.00000000  0.50000000  0.22222222       0.004
   0.11111111  0.50000000  0.22222222       0.008
   0.22222222  0.50000000  0.22222222       0.008
   0.33333333  0.50000000  0.22222222       0.008
   0.44444444  0.50000000  0.22222222       0.008
   0.00000000  0.00000000  0.33333333       0.004
   0.11111111  0.00000000  0.33333333       0.008
   0.22222222  0.00000000  0.33333333       0.008
   0.33333333  0.00000000  0.33333333       0.008
   0.44444444  0.00000000  0.33333333       0.008
   0.00000000  0.16666667  0.33333333       0.008
   0.11111111  0.16666667  0.33333333       0.016
   0.22222222  0.16666667  0.33333333       0.016
   0.33333333  0.16666667  0.33333333       0.016
   0.44444444  0.16666667  0.33333333       0.016
   0.00000000  0.33333333  0.33333333       0.008
   0.11111111  0.33333333  0.33333333       0.016
   0.22222222  0.33333333  0.33333333       0.016
   0.33333333  0.33333333  0.33333333       0.016
   0.44444444  0.33333333  0.33333333       0.016
   0.00000000  0.50000000  0.33333333       0.004
   0.11111111  0.50000000  0.33333333       0.008
   0.22222222  0.50000000  0.33333333       0.008
   0.33333333  0.50000000  0.33333333       0.008
   0.44444444  0.50000000  0.33333333       0.008
   0.00000000  0.00000000  0.44444444       0.004
   0.11111111  0.00000000  0.44444444       0.008
   0.22222222  0.00000000  0.44444444       0.008
   0.33333333  0.00000000  0.44444444       0.008
   0.44444444  0.00000000  0.44444444       0.008
   0.00000000  0.16666667  0.44444444       0.008
   0.11111111  0.16666667  0.44444444       0.016
   0.22222222  0.16666667  0.44444444       0.016
   0.33333333  0.16666667  0.44444444       0.016
   0.44444444  0.16666667  0.44444444       0.016
   0.00000000  0.33333333  0.44444444       0.008
   0.11111111  0.33333333  0.44444444       0.016
   0.22222222  0.33333333  0.44444444       0.016
   0.33333333  0.33333333  0.44444444       0.016
   0.44444444  0.33333333  0.44444444       0.016
   0.00000000  0.50000000  0.44444444       0.004
   0.11111111  0.50000000  0.44444444       0.008
   0.22222222  0.50000000  0.44444444       0.008
   0.33333333  0.50000000  0.44444444       0.008
   0.44444444  0.50000000  0.44444444       0.008
 
 position of ions in fractional coordinates (direct lattice) 
   0.49079597  0.00241923  0.25000000
   0.99079597  0.49758077  0.25000000
   0.50920403  0.99758077  0.75000000
   0.00920403  0.50241923  0.75000000
   0.50000000  0.50000000  0.00000000
   0.00000000  0.00000000  0.50000000
   0.50000000  0.50000000  0.50000000
   0.00000000  0.00000000  0.00000000
   0.23821864  0.25990452  0.47104598
   0.73821864  0.24009548  0.02895402
   0.76178136  0.74009548  0.97104598
   0.26178136  0.75990452  0.52895402
   0.76178136  0.74009548  0.52895402
   0.26178136  0.75990452  0.97104598
   0.23821864  0.25990452  0.02895402
   0.73821864  0.24009548  0.47104598
   0.50204005  0.55544281  0.25000000
   0.00204005  0.94455719  0.25000000
   0.49795995  0.44455719  0.75000000
   0.99795995  0.05544281  0.75000000
 
 position of ions in cartesian coordinates  (Angst):
   2.78383289  0.01384721  2.00414040
   5.61987173  2.84806277  2.00414040
   2.88824479  5.70997274  6.01242120
   0.05220595  2.87575718  6.01242120
   2.83603884  2.86190997  0.00000000
   0.00000000  0.00000000  4.00828080
   2.83603884  2.86190997  4.00828080
   0.00000000  0.00000000  0.00000000
   1.35119461  1.48764670  3.77616911
   4.18723345  1.37426327  0.23211169
   4.32088307  4.23617325  7.78444991
   1.48484423  4.34955667  4.24039249
   4.32088307  4.23617325  4.24039249
   1.48484423  4.34955667  7.78444991
   1.35119461  1.48764670  0.23211169
   4.18723345  1.37426327  3.77616911
   2.84761019  3.17925466  2.00414040
   0.01157135  5.40647527  2.00414040
   2.82446749  2.54456529  6.01242120
   5.66050633  0.31734468  6.01242120
 


--------------------------------------------------------------------------------------------------------


 k-point  1 :   0.0000 0.0000 0.0000  plane waves:    6989
 k-point  2 :   0.1111 0.0000 0.0000  plane waves:    6993
 k-point  3 :   0.2222 0.0000 0.0000  plane waves:    7011
 k-point  4 :   0.3333 0.0000 0.0000  plane waves:    7023
 k-point  5 :   0.4444 0.0000 0.0000  plane waves:    7027
 k-point  6 :   0.0000 0.1667 0.0000  plane waves:    7017
 k-point  7 :   0.1111 0.1667 0.0000  plane waves:    7016
 k-point  8 :   0.2222 0.1667 0.0000  plane waves:    7012
 k-point  9 :   0.3333 0.1667 0.0000  plane waves:    7005
 k-point 10 :   0.4444 0.1667 0.0000  plane waves:    6997
 k-point 11 :   0.0000 0.3333 0.0000  plane waves:    7011
 k-point 12 :   0.1111 0.3333 0.0000  plane waves:    7015
 k-point 13 :   0.2222 0.3333 0.0000  plane waves:    7001
 k-point 14 :   0.3333 0.3333 0.0000  plane waves:    6983
 k-point 15 :   0.4444 0.3333 0.0000  plane waves:    6978
 k-point 16 :   0.0000 0.5000 0.0000  plane waves:    7018
 k-point 17 :   0.1111 0.5000 0.0000  plane waves:    7018
 k-point 18 :   0.2222 0.5000 0.0000  plane waves:    6990
 k-point 19 :   0.3333 0.5000 0.0000  plane waves:    6972
 k-point 20 :   0.4444 0.5000 0.0000  plane waves:    6980
 k-point 21 :   0.0000 0.0000 0.1111  plane waves:    6986
 k-point 22 :   0.1111 0.0000 0.1111  plane waves:    7010
 k-point 23 :   0.2222 0.0000 0.1111  plane waves:    7014
 k-point 24 :   0.3333 0.0000 0.1111  plane waves:    7009
 k-point 25 :   0.4444 0.0000 0.1111  plane waves:    7024
 k-point 26 :   0.0000 0.1667 0.1111  plane waves:    7012
 k-point 27 :   0.1111 0.1667 0.1111  plane waves:    7008
 k-point 28 :   0.2222 0.1667 0.1111  plane waves:    7016
 k-point 29 :   0.3333 0.1667 0.1111  plane waves:    7017
 k-point 30 :   0.4444 0.1667 0.1111  plane waves:    7003
 k-point 31 :   0.0000 0.3333 0.1111  plane waves:    7027
 k-point 32 :   0.1111 0.3333 0.1111  plane waves:    7019
 k-point 33 :   0.2222 0.3333 0.1111  plane waves:    7002
 k-point 34 :   0.3333 0.3333 0.1111  plane waves:    6993
 k-point 35 :   0.4444 0.3333 0.1111  plane waves:    6975
 k-point 36 :   0.0000 0.5000 0.1111  plane waves:    7016
 k-point 37 :   0.1111 0.5000 0.1111  plane waves:    7002
 k-point 38 :   0.2222 0.5000 0.1111  plane waves:    7000
 k-point 39 :   0.3333 0.5000 0.1111  plane waves:    6978
 k-point 40 :   0.4444 0.5000 0.1111  plane waves:    6984
 k-point 41 :   0.0000 0.0000 0.2222  plane waves:    7014
 k-point 42 :   0.1111 0.0000 0.2222  plane waves:    7014
 k-point 43 :   0.2222 0.0000 0.2222  plane waves:    7018
 k-point 44 :   0.3333 0.0000 0.2222  plane waves:    7020
 k-point 45 :   0.4444 0.0000 0.2222  plane waves:    7008
 k-point 46 :   0.0000 0.1667 0.2222  plane waves:    7003
 k-point 47 :   0.1111 0.1667 0.2222  plane waves:    7011
 k-point 48 :   0.2222 0.1667 0.2222  plane waves:    7007
 k-point 49 :   0.3333 0.1667 0.2222  plane waves:    7016
 k-point 50 :   0.4444 0.1667 0.2222  plane waves:    7015
 k-point 51 :   0.0000 0.3333 0.2222  plane waves:    7014
 k-point 52 :   0.1111 0.3333 0.2222  plane waves:    7018
 k-point 53 :   0.2222 0.3333 0.2222  plane waves:    7011
 k-point 54 :   0.3333 0.3333 0.2222  plane waves:    7000
 k-point 55 :   0.4444 0.3333 0.2222  plane waves:    6980
 k-point 56 :   0.0000 0.5000 0.2222  plane waves:    7002
 k-point 57 :   0.1111 0.5000 0.2222  plane waves:    7014
 k-point 58 :   0.2222 0.5000 0.2222  plane waves:    7012
 k-point 59 :   0.3333 0.5000 0.2222  plane waves:    6990
 k-point 60 :   0.4444 0.5000 0.2222  plane waves:    6984
 k-point 61 :   0.0000 0.0000 0.3333  plane waves:    7018
 k-point 62 :   0.1111 0.0000 0.3333  plane waves:    7020
 k-point 63 :   0.2222 0.0000 0.3333  plane waves:    7011
 k-point 64 :   0.3333 0.0000 0.3333  plane waves:    7009
 k-point 65 :   0.4444 0.0000 0.3333  plane waves:    7013
 k-point 66 :   0.0000 0.1667 0.3333  plane waves:    7027
 k-point 67 :   0.1111 0.1667 0.3333  plane waves:    7003
 k-point 68 :   0.2222 0.1667 0.3333  plane waves:    7009
 k-point 69 :   0.3333 0.1667 0.3333  plane waves:    7013
 k-point 70 :   0.4444 0.1667 0.3333  plane waves:    7018
 k-point 71 :   0.0000 0.3333 0.3333  plane waves:    7017
 k-point 72 :   0.1111 0.3333 0.3333  plane waves:    7016
 k-point 73 :   0.2222 0.3333 0.3333  plane waves:    7007
 k-point 74 :   0.3333 0.3333 0.3333  plane waves:    7007
 k-point 75 :   0.4444 0.3333 0.3333  plane waves:    6992
 k-point 76 :   0.0000 0.5000 0.3333  plane waves:    7024
 k-point 77 :   0.1111 0.5000 0.3333  plane waves:    7036
 k-point 78 :   0.2222 0.5000 0.3333  plane waves:    7022
 k-point 79 :   0.3333 0.5000 0.3333  plane waves:    7010
 k-point 80 :   0.4444 0.5000 0.3333  plane waves:    6980
 k-point 81 :   0.0000 0.0000 0.4444  plane waves:    7030
 k-point 82 :   0.1111 0.0000 0.4444  plane waves:    7022
 k-point 83 :   0.2222 0.0000 0.4444  plane waves:    7013
 k-point 84 :   0.3333 0.0000 0.4444  plane waves:    7011
 k-point 85 :   0.4444 0.0000 0.4444  plane waves:    7031
 k-point 86 :   0.0000 0.1667 0.4444  plane waves:    7035
 k-point 87 :   0.1111 0.1667 0.4444  plane waves:    7011
 k-point 88 :   0.2222 0.1667 0.4444  plane waves:    7013
 k-point 89 :   0.3333 0.1667 0.4444  plane waves:    7011
 k-point 90 :   0.4444 0.1667 0.4444  plane waves:    6999
 k-point 91 :   0.0000 0.3333 0.4444  plane waves:    7025
 k-point 92 :   0.1111 0.3333 0.4444  plane waves:    7018
 k-point 93 :   0.2222 0.3333 0.4444  plane waves:    7003
 k-point 94 :   0.3333 0.3333 0.4444  plane waves:    6992
 k-point 95 :   0.4444 0.3333 0.4444  plane waves:    7002
 k-point 96 :   0.0000 0.5000 0.4444  plane waves:    7008
 k-point 97 :   0.1111 0.5000 0.4444  plane waves:    7020
 k-point 98 :   0.2222 0.5000 0.4444  plane waves:    7014
 k-point 99 :   0.3333 0.5000 0.4444  plane waves:    7030
 k-point ** :   0.4444 0.5000 0.4444  plane waves:    6982

 maximum and minimum number of plane-waves per node :       894      850

 maximum number of plane-waves:      7036
 maximum index in each direction: 
   IXMAX=   10   IYMAX=   10   IZMAX=   14
   IXMIN=  -10   IYMIN=  -11   IZMIN=  -15

 NGX is ok and might be reduce to  42
 NGY is ok and might be reduce to  44
 NGZ is ok and might be reduce to  60

 real space projection operators:
  total allocation   :      15880.31 KBytes
  max/ min on nodes  :       2302.28       1864.56


 parallel 3D FFT for wavefunctions:
    minimum data exchange during FFTs selected (reduces bandwidth)
 parallel 3D FFT for charge:
    minimum data exchange during FFTs selected (reduces bandwidth)


 total amount of memory used by VASP on root node    61417. kBytes
========================================================================

   base      :      30000. kBytes
   nonlr-proj:       5696. kBytes
   fftplans  :       3793. kBytes
   grid      :       2188. kBytes
   one-center:        147. kBytes
   wavefun   :      19593. kBytes
 
     INWAV:  cpu time    0.0000: real time    0.0007
 Broyden mixing: mesh for mixing (old mesh)
   NGX = 21   NGY = 21   NGZ = 29
  (NGX  = 84   NGY  = 96   NGZ  =120)
  gives a total of  12789 points

 initial charge density was supplied:
 charge density of overlapping atoms calculated
 number of electron     128.0000000 magnetization 
 keeping initial charge density in first step


--------------------------------------------------------------------------------------------------------


 Maximum index for non-local projection operator         1449
 Maximum index for augmentation-charges         6756 (set IRDMAX)


--------------------------------------------------------------------------------------------------------


 First call to EWALD:  gamma=   0.278
 Maximum number of real-space cells 3x 3x 2
 Maximum number of reciprocal cells 2x 3x 3

 FEWALD executed in parallel
    FEWALD:  cpu time    0.0030: real time    0.0027


----------------------------------------- Iteration    1(   1)  ---------------------------------------


    POTLOK:  cpu time    0.0310: real time    0.0311
    SETDIJ:  cpu time    0.1040: real time    0.1046
     EDDAV:  cpu time   13.6049: real time   13.6399
       DOS:  cpu time    0.0030: real time    0.0048
    --------------------------------------------
      LOOP:  cpu time   13.7479: real time   13.7885

 eigenvalue-minimisations  : 16056
 total energy-change (2. order) : 0.1732514E+04  (-0.4893405E+04)
 number of electron     128.0000000 magnetization 
 augmentation part      128.0000000 magnetization 

 Free energy of the ion-electron system (eV)
  ---------------------------------------------------
  alpha Z        PSCENC =       604.94042719
  Ewald energy   TEWEN  =     -7596.03970221
  -Hartree energ DENC   =      -777.79395194
  -exchange      EXHF   =         0.00000000
  -V(xc)+E(xc)   XCENC  =       167.76604612
  PAW double counting   =      6002.30436642    -5770.33579059
  entropy T*S    EENTRO =        -0.00423516
  eigenvalues    EBANDS =      1644.90691172
  atomic energy  EATOM  =      7456.77002590
  Solvation  Ediel_sol  =         0.00000000
  ---------------------------------------------------
  free energy    TOTEN  =      1732.51409746 eV

  energy without entropy =     1732.51833261  energy(sigma->0) =     1732.51621503


--------------------------------------------------------------------------------------------------------




----------------------------------------- Iteration    1(   2)  ---------------------------------------


     EDDAV:  cpu time   14.7888: real time   14.8213
       DOS:  cpu time    0.0040: real time    0.0046
    --------------------------------------------
      LOOP:  cpu time   14.7948: real time   14.8415

 eigenvalue-minimisations  : 18132
 total energy-change (2. order) :-0.1316200E+04  (-0.1240010E+04)
 number of electron     128.0000000 magnetization 
 augmentation part      128.0000000 magnetization 

 Free energy of the ion-electron system (eV)
  ---------------------------------------------------
  alpha Z        PSCENC =       604.94042719
  Ewald energy   TEWEN  =     -7596.03970221
  -Hartree energ DENC   =      -777.79395194
  -exchange      EXHF   =         0.00000000
  -V(xc)+E(xc)   XCENC  =       167.76604612
  PAW double counting   =      6002.30436642    -5770.33579059
  entropy T*S    EENTRO =        -0.01583840
  eigenvalues    EBANDS =       328.71850198
  atomic energy  EATOM  =      7456.77002590
  Solvation  Ediel_sol  =         0.00000000
  ---------------------------------------------------
  free energy    TOTEN  =       416.31408447 eV

  energy without entropy =      416.32992287  energy(sigma->0) =      416.32200367


--------------------------------------------------------------------------------------------------------




----------------------------------------- Iteration    1(   3)  ---------------------------------------


     EDDAV:  cpu time   20.1399: real time   20.1991
       DOS:  cpu time    0.0040: real time    0.0041
    --------------------------------------------
      LOOP:  cpu time   20.1469: real time   20.2140

 eigenvalue-minimisations  : 26700
 total energy-change (2. order) :-0.5091174E+03  (-0.4951618E+03)
 number of electron     128.0000000 magnetization 
 augmentation part      128.0000000 magnetization 

 Free energy of the ion-electron system (eV)
  ---------------------------------------------------
  alpha Z        PSCENC =       604.94042719
  Ewald energy   TEWEN  =     -7596.03970221
  -Hartree energ DENC   =      -777.79395194
  -exchange      EXHF   =         0.00000000
  -V(xc)+E(xc)   XCENC  =       167.76604612
  PAW double counting   =      6002.30436642    -5770.33579059
  entropy T*S    EENTRO =        -0.00130671
  eigenvalues    EBANDS =      -180.41338264
  atomic energy  EATOM  =      7456.77002590
  Solvation  Ediel_sol  =         0.00000000
  ---------------------------------------------------
  free energy    TOTEN  =       -92.80326847 eV

  energy without entropy =      -92.80196175  energy(sigma->0) =      -92.80261511


--------------------------------------------------------------------------------------------------------




----------------------------------------- Iteration    1(   4)  ---------------------------------------


     EDDAV:  cpu time   22.3436: real time   22.4088
       DOS:  cpu time    0.0020: real time    0.0018
    --------------------------------------------
      LOOP:  cpu time   22.3466: real time   22.4266

 eigenvalue-minimisations  : 30120
 total energy-change (2. order) :-0.1179811E+03  (-0.1152354E+03)
 number of electron     128.0000000 magnetization 
 augmentation part      128.0000000 magnetization 

 Free energy of the ion-electron system (eV)
  ---------------------------------------------------
  alpha Z        PSCENC =       604.94042719
  Ewald energy   TEWEN  =     -7596.03970221
  -Hartree energ DENC   =      -777.79395194
  -exchange      EXHF   =         0.00000000
  -V(xc)+E(xc)   XCENC  =       167.76604612
  PAW double counting   =      6002.30436642    -5770.33579059
  entropy T*S    EENTRO =        -0.00000000
  eigenvalues    EBANDS =      -298.39580195
  atomic energy  EATOM  =      7456.77002590
  Solvation  Ediel_sol  =         0.00000000
  ---------------------------------------------------
  free energy    TOTEN  =      -210.78438106 eV

  energy without entropy =     -210.78438106  energy(sigma->0) =     -210.78438106


--------------------------------------------------------------------------------------------------------




----------------------------------------- Iteration    1(   5)  ---------------------------------------


     EDDAV:  cpu time   23.0025: real time   23.0721
       DOS:  cpu time    0.0020: real time    0.0020
    CHARGE:  cpu time    0.4579: real time    0.4607
    MIXING:  cpu time    0.0020: real time    0.0020
    --------------------------------------------
      LOOP:  cpu time   23.4664: real time   23.5506

 eigenvalue-minimisations  : 31152
 total energy-change (2. order) :-0.9473855E+01  (-0.9376372E+01)
 number of electron     128.0000000 magnetization 
 augmentation part       -1.4938390 magnetization 

 Broyden mixing:
  rms(total) = 0.79248E+01    rms(broyden)= 0.79245E+01
  rms(prec ) = 0.91877E+01
  weight for this iteration     100.00

 Free energy of the ion-electron system (eV)
  ---------------------------------------------------
  alpha Z        PSCENC =       604.94042719
  Ewald energy   TEWEN  =     -7596.03970221
  -Hartree energ DENC   =      -777.79395194
  -exchange      EXHF   =         0.00000000
  -V(xc)+E(xc)   XCENC  =       167.76604612
  PAW double counting   =      6002.30436642    -5770.33579059
  entropy T*S    EENTRO =        -0.00000000
  eigenvalues    EBANDS =      -307.86965694
  atomic energy  EATOM  =      7456.77002590
  Solvation  Ediel_sol  =         0.00000000
  ---------------------------------------------------
  free energy    TOTEN  =      -220.25823605 eV

  energy without entropy =     -220.25823605  energy(sigma->0) =     -220.25823605


--------------------------------------------------------------------------------------------------------




----------------------------------------- Iteration    1(   6)  ---------------------------------------


    POTLOK:  cpu time    0.0270: real time    0.0263
    SETDIJ:  cpu time    0.1020: real time    0.1034
     EDDAV:  cpu time   20.4399: real time   20.5012
       DOS:  cpu time    0.0020: real time    0.0020
    CHARGE:  cpu time    0.4579: real time    0.4594
    MIXING:  cpu time    0.0020: real time    0.0015
    --------------------------------------------
      LOOP:  cpu time   21.0338: real time   21.1076

 eigenvalue-minimisations  : 27060
 total energy-change (2. order) : 0.2312765E+02  (-0.2494937E+01)
 number of electron     128.0000000 magnetization 
 augmentation part       -2.0334060 magnetization 

 Broyden mixing:
  rms(total) = 0.61013E+01    rms(broyden)= 0.61013E+01
  rms(prec ) = 0.69430E+01
  weight for this iteration     100.00

 eigenvalues of (default mixing * dielectric matrix)
  average eigenvalue GAMMA=   4.0719
  4.0719

 Free energy of the ion-electron system (eV)
  ---------------------------------------------------
  alpha Z        PSCENC =       604.94042719
  Ewald energy   TEWEN  =     -7596.03970221
  -Hartree energ DENC   =      -812.50155612
  -exchange      EXHF   =         0.00000000
  -V(xc)+E(xc)   XCENC  =       172.16677388
  PAW double counting   =      6464.76187527    -6235.85931371
  entropy T*S    EENTRO =        -0.00000000
  eigenvalues    EBANDS =      -251.36911931
  atomic energy  EATOM  =      7456.77002590
  Solvation  Ediel_sol  =         0.00000000
  ---------------------------------------------------
  free energy    TOTEN  =      -197.13058911 eV

  energy without entropy =     -197.13058911  energy(sigma->0) =     -197.13058911


--------------------------------------------------------------------------------------------------------




----------------------------------------- Iteration    1(   7)  ---------------------------------------


    POTLOK:  cpu time    0.0260: real time    0.0260
    SETDIJ:  cpu time    0.1030: real time    0.1036
     EDDAV:  cpu time   17.9043: real time   17.9558
       DOS:  cpu time    0.0050: real time    0.0045
    CHARGE:  cpu time    0.4579: real time    0.4599
    MIXING:  cpu time    0.0010: real time    0.0010
    --------------------------------------------
      LOOP:  cpu time   18.4992: real time   18.5661

 eigenvalue-minimisations  : 22932
 total energy-change (2. order) : 0.1522514E+02  (-0.1899452E+02)
 number of electron     128.0000000 magnetization 
 augmentation part       -1.5911610 magnetization 

 Broyden mixing:
  rms(total) = 0.17445E+01    rms(broyden)= 0.17438E+01
  rms(prec ) = 0.25567E+01
  weight for this iteration     100.00

 eigenvalues of (default mixing * dielectric matrix)
  average eigenvalue GAMMA=   2.2439
  2.2439  2.2439

 Free energy of the ion-electron system (eV)
  ---------------------------------------------------
  alpha Z        PSCENC =       604.94042719
  Ewald energy   TEWEN  =     -7596.03970221
  -Hartree energ DENC   =      -916.96724951
  -exchange      EXHF   =         0.00000000
  -V(xc)+E(xc)   XCENC  =       184.92542341
  PAW double counting   =      8286.18612728    -8065.73044551
  entropy T*S    EENTRO =        -0.00932325
  eigenvalues    EBANDS =      -135.98072951
  atomic energy  EATOM  =      7456.77002590
  Solvation  Ediel_sol  =         0.00000000
  ---------------------------------------------------
  free energy    TOTEN  =      -181.90544622 eV

  energy without entropy =     -181.89612297  energy(sigma->0) =     -181.90078460


--------------------------------------------------------------------------------------------------------




----------------------------------------- Iteration    1(   8)  ---------------------------------------


    POTLOK:  cpu time    0.0260: real time    0.0264
    SETDIJ:  cpu time    0.1030: real time    0.1032
     EDDAV:  cpu time   20.1289: real time   20.1900
       DOS:  cpu time    0.0050: real time    0.0042
    CHARGE:  cpu time    0.4589: real time    0.4598
    MIXING:  cpu time    0.0010: real time    0.0009
    --------------------------------------------
      LOOP:  cpu time   20.7258: real time   20.7974

 eigenvalue-minimisations  : 26640
 total energy-change (2. order) : 0.3055576E+01  (-0.4295264E+01)
 number of electron     128.0000000 magnetization 
 augmentation part       -2.3192894 magnetization 

 Broyden mixing:
  rms(total) = 0.28911E+01    rms(broyden)= 0.28911E+01
  rms(prec ) = 0.29508E+01
  weight for this iteration     100.00

 eigenvalues of (default mixing * dielectric matrix)
  average eigenvalue GAMMA=   1.6513
  2.3524  1.2109  1.3907

 Free energy of the ion-electron system (eV)
  ---------------------------------------------------
  alpha Z        PSCENC =       604.94042719
  Ewald energy   TEWEN  =     -7596.03970221
  -Hartree energ DENC   =      -873.61018516
  -exchange      EXHF   =         0.00000000
  -V(xc)+E(xc)   XCENC  =       180.00801023
  PAW double counting   =      7953.81196379    -7731.90673400
  entropy T*S    EENTRO =        -0.00145059
  eigenvalues    EBANDS =      -172.82222489
  atomic energy  EATOM  =      7456.77002590
  Solvation  Ediel_sol  =         0.00000000
  ---------------------------------------------------
  free energy    TOTEN  =      -178.84986974 eV

  energy without entropy =     -178.84841915  energy(sigma->0) =     -178.84914444


--------------------------------------------------------------------------------------------------------




----------------------------------------- Iteration    1(   9)  ---------------------------------------


    POTLOK:  cpu time    0.0270: real time    0.0267
    SETDIJ:  cpu time    0.1030: real time    0.1035
     EDDAV:  cpu time   22.0117: real time   22.0610
       DOS:  cpu time    0.0040: real time    0.0043
    CHARGE:  cpu time    0.4589: real time    0.4589
    MIXING:  cpu time    0.0010: real time    0.0011
    --------------------------------------------
      LOOP:  cpu time   22.6096: real time   22.6731

 eigenvalue-minimisations  : 29580
 total energy-change (2. order) :-0.2526414E+00  (-0.2263200E+00)
 number of electron     128.0000000 magnetization 
 augmentation part       -2.4188642 magnetization 

 Broyden mixing:
  rms(total) = 0.28595E+01    rms(broyden)= 0.28595E+01
  rms(prec ) = 0.29169E+01
  weight for this iteration     100.00

 eigenvalues of (default mixing * dielectric matrix)
  average eigenvalue GAMMA=   3.7157
 10.6183  2.4756  1.0277  0.7413

 Free energy of the ion-electron system (eV)
  ---------------------------------------------------
  alpha Z        PSCENC =       604.94042719
  Ewald energy   TEWEN  =     -7596.03970221
  -Hartree energ DENC   =      -882.19560937
  -exchange      EXHF   =         0.00000000
  -V(xc)+E(xc)   XCENC  =       180.64023725
  PAW double counting   =      7485.98124479    -7262.70655169
  entropy T*S    EENTRO =        -0.00350205
  eigenvalues    EBANDS =      -166.48908091
  atomic energy  EATOM  =      7456.77002590
  Solvation  Ediel_sol  =         0.00000000
  ---------------------------------------------------
  free energy    TOTEN  =      -179.10251110 eV

  energy without entropy =     -179.09900906  energy(sigma->0) =     -179.10076008


--------------------------------------------------------------------------------------------------------




----------------------------------------- Iteration    1(  10)  ---------------------------------------


    POTLOK:  cpu time    0.0270: real time    0.0271
    SETDIJ:  cpu time    0.1030: real time    0.1032
     EDDAV:  cpu time   20.2349: real time   20.2804
       DOS:  cpu time    0.0040: real time    0.0042
    CHARGE:  cpu time    0.4589: real time    0.4589
    MIXING:  cpu time    0.0010: real time    0.0010
    --------------------------------------------
      LOOP:  cpu time   20.8308: real time   20.8927

 eigenvalue-minimisations  : 26760
 total energy-change (2. order) : 0.3553576E+00  (-0.2340777E+00)
 number of electron     128.0000000 magnetization 
 augmentation part       -2.5222265 magnetization 

 Broyden mixing:
  rms(total) = 0.11283E+01    rms(broyden)= 0.11283E+01
  rms(prec ) = 0.11881E+01
  weight for this iteration     100.00

 eigenvalues of (default mixing * dielectric matrix)
  average eigenvalue GAMMA=   3.0010
  9.4447  1.9778  1.9778  0.6417  0.9631

 Free energy of the ion-electron system (eV)
  ---------------------------------------------------
  alpha Z        PSCENC =       604.94042719
  Ewald energy   TEWEN  =     -7596.03970221
  -Hartree energ DENC   =      -873.09594500
  -exchange      EXHF   =         0.00000000
  -V(xc)+E(xc)   XCENC  =       181.81083149
  PAW double counting   =     11115.87747991   -10902.49628644
  entropy T*S    EENTRO =        -0.00104450
  eigenvalues    EBANDS =      -166.51293988
  atomic energy  EATOM  =      7456.77002590
  Solvation  Ediel_sol  =         0.00000000
  ---------------------------------------------------
  free energy    TOTEN  =      -178.74715354 eV

  energy without entropy =     -178.74610903  energy(sigma->0) =     -178.74663129


--------------------------------------------------------------------------------------------------------




----------------------------------------- Iteration    1(  11)  ---------------------------------------


    POTLOK:  cpu time    0.0250: real time    0.0264
    SETDIJ:  cpu time    0.1040: real time    0.1036
     EDDAV:  cpu time   18.5522: real time   18.5949
       DOS:  cpu time    0.0050: real time    0.0043
    CHARGE:  cpu time    0.4579: real time    0.4589
    MIXING:  cpu time    0.0010: real time    0.0010
    --------------------------------------------
      LOOP:  cpu time   19.1481: real time   19.9124

 eigenvalue-minimisations  : 23988
 total energy-change (2. order) : 0.1556778E+00  (-0.7317542E-01)
 number of electron     128.0000000 magnetization 
 augmentation part       -2.4656496 magnetization 

 Broyden mixing:
  rms(total) = 0.72822E+00    rms(broyden)= 0.72822E+00
  rms(prec ) = 0.75738E+00
  weight for this iteration     100.00

 eigenvalues of (default mixing * dielectric matrix)
  average eigenvalue GAMMA=   2.9671
  9.3888  2.9103  2.9103  0.7041  0.9445  0.9445

 Free energy of the ion-electron system (eV)
  ---------------------------------------------------
  alpha Z        PSCENC =       604.94042719
  Ewald energy   TEWEN  =     -7596.03970221
  -Hartree energ DENC   =      -878.70688545
  -exchange      EXHF   =         0.00000000
  -V(xc)+E(xc)   XCENC  =       182.44633454
  PAW double counting   =     11080.50132149   -10866.88236382
  entropy T*S    EENTRO =        -0.00262352
  eigenvalues    EBANDS =      -161.61800985
  atomic energy  EATOM  =      7456.77002590
  Solvation  Ediel_sol  =         0.00000000
  ---------------------------------------------------
  free energy    TOTEN  =      -178.59147572 eV

  energy without entropy =     -178.58885221  energy(sigma->0) =     -178.59016397


--------------------------------------------------------------------------------------------------------




----------------------------------------- Iteration    1(  12)  ---------------------------------------


    POTLOK:  cpu time    0.0270: real time    0.0267
    SETDIJ:  cpu time    0.1020: real time    0.1033
     EDDAV:  cpu time   21.0798: real time   21.1449
       DOS:  cpu time    0.0040: real time    0.0044
    CHARGE:  cpu time    0.4579: real time    0.4589
    MIXING:  cpu time    0.0010: real time    0.0010
    --------------------------------------------
      LOOP:  cpu time   21.6757: real time   21.7525

 eigenvalue-minimisations  : 28056
 total energy-change (2. order) : 0.6641672E-01  (-0.2763220E-01)
 number of electron     128.0000000 magnetization 
 augmentation part       -2.4218499 magnetization 

 Broyden mixing:
  rms(total) = 0.64375E+00    rms(broyden)= 0.64375E+00
  rms(prec ) = 0.65390E+00
  weight for this iteration     100.00

 eigenvalues of (default mixing * dielectric matrix)
  average eigenvalue GAMMA=   2.9078
  9.8903  4.6404  2.6197  0.9614  0.9614  0.7201  0.5609

 Free energy of the ion-electron system (eV)
  ---------------------------------------------------
  alpha Z        PSCENC =       604.94042719
  Ewald energy   TEWEN  =     -7596.03970221
  -Hartree energ DENC   =      -876.78823737
  -exchange      EXHF   =         0.00000000
  -V(xc)+E(xc)   XCENC  =       182.41035716
  PAW double counting   =     11317.41756835   -11103.79746028
  entropy T*S    EENTRO =        -0.00283894
  eigenvalues    EBANDS =      -163.43519882
  atomic energy  EATOM  =      7456.77002590
  Solvation  Ediel_sol  =         0.00000000
  ---------------------------------------------------
  free energy    TOTEN  =      -178.52505901 eV

  energy without entropy =     -178.52222007  energy(sigma->0) =     -178.52363954


--------------------------------------------------------------------------------------------------------




----------------------------------------- Iteration    1(  13)  ---------------------------------------


    POTLOK:  cpu time    0.0250: real time    0.0258
    SETDIJ:  cpu time    0.1040: real time    0.1034
     EDDAV:  cpu time   22.2926: real time   22.4797
       DOS:  cpu time    0.0050: real time    0.0042
    CHARGE:  cpu time    0.4559: real time    0.4591
[...]
     27      -4.4019      2.00000
     28      -4.4019      2.00000
     29       1.7929      2.00000
     30       1.7929      2.00000
     31       1.8026      2.00000
     32       1.8026      2.00000
     33       2.7051      2.00000
     34       2.7051      2.00000
     35       3.0477      2.00000
     36       3.0477      2.00000
     37       3.2068      2.00000
     38       3.2068      2.00000
     39       3.7024      2.00000
     40       3.7024      2.00000
     41       3.9651      2.00000
     42       3.9651      2.00000
     43       3.9992      2.00000
     44       3.9992      2.00000
     45       4.1464      2.00000
     46       4.1464      2.00000
     47       4.1575      2.00000
     48       4.1575      2.00000
     49       5.5027      2.00000
     50       5.5027      2.00000
     51       5.7589      2.00000
     52       5.7589      2.00000
     53       6.2311      2.00000
     54       6.2311      2.00000
     55       6.3655      2.00000
     56       6.3655      2.00000
     57       6.4828      2.00000
     58       6.4828      2.00000
     59       6.6149      2.00000
     60       6.6149      2.00000
     61       7.1108      2.00000
     62       7.1108      2.00000
     63       7.4474      2.00000
     64       7.4474      2.00000
     65       9.4865      0.00000
     66       9.4865      0.00000
     67       9.9497      0.00000
     68       9.9497      0.00000
     69      10.4617      0.00000
     70      10.4617      0.00000
     71      10.5330      0.00000
     72      10.5330      0.00000
     73      11.1545      0.00000
     74      11.1545      0.00000
     75      11.1859      0.00000
     76      11.1859      0.00000
     77      12.8270      0.00000
     78      12.8286      0.00000


--------------------------------------------------------------------------------------------------------


 soft charge-density along one line, spin component           1
         0         1         2         3         4         5         6         7         8         9
 total charge-density along one line
 
 pseudopotential strength for first ion, spin component:           1
 52.141 -42.731  -0.002   0.000   0.002   0.001   0.000  -0.001
-42.731  27.495   0.002  -0.000  -0.001  -0.001   0.000   0.001
 -0.002   0.002  18.703   0.000  -0.000 -11.013   0.000  -0.001
  0.000  -0.000   0.000  18.706   0.000   0.000 -11.009   0.000
  0.002  -0.001  -0.000   0.000  18.704  -0.001   0.000 -11.010
  0.001  -0.001 -11.013   0.000  -0.001  16.505  -0.000   0.001
  0.000   0.000   0.000 -11.009   0.000  -0.000  16.500  -0.000
 -0.001   0.001  -0.001   0.000 -11.010   0.001  -0.000  16.502
 -0.000   0.001   0.000  -0.000  -0.002  -0.000  -0.000   0.000
  0.000  -0.000  -0.000  -0.003  -0.000  -0.000   0.000  -0.000
  0.001  -0.002  -0.001   0.000  -0.000   0.000   0.000   0.000
  0.000  -0.000  -0.000   0.001  -0.000  -0.000  -0.000  -0.000
  0.000  -0.001  -0.001  -0.000   0.001   0.000  -0.000  -0.000
 -0.000   0.001   0.001  -0.000  -0.003  -0.000  -0.000   0.001
  0.000  -0.000  -0.000  -0.004  -0.000  -0.000   0.001  -0.000
  0.001  -0.003  -0.002   0.000  -0.001   0.000   0.000   0.000
  0.000  -0.000  -0.000   0.001  -0.000  -0.000  -0.000  -0.000
  0.000  -0.002  -0.002  -0.000   0.001   0.000  -0.000  -0.001
 -0.000   0.001  -0.004  -0.000   0.002   0.003   0.000  -0.001
  0.000  -0.000   0.000   0.003  -0.000  -0.000  -0.002   0.000
 -0.000   0.001  -0.004  -0.000   0.001   0.003   0.000  -0.001
 -0.000   0.000   0.000  -0.007   0.000  -0.000   0.005  -0.000
 -0.001   0.000   0.001   0.000  -0.001  -0.001  -0.000   0.001
  0.000  -0.000   0.000  -0.001  -0.000  -0.000   0.001   0.000
  0.001  -0.000  -0.001  -0.000  -0.002   0.000   0.000   0.002
 -0.000   0.001  -0.004  -0.000   0.001   0.003   0.000  -0.001
  0.000  -0.000   0.000   0.002  -0.000  -0.000  -0.002   0.000
 -0.000   0.001  -0.003  -0.000   0.001   0.003   0.000  -0.001
 -0.000   0.000   0.000  -0.007   0.000  -0.000   0.005  -0.000
 -0.001   0.000   0.001   0.000  -0.001  -0.001  -0.000   0.001
  0.000  -0.000   0.000  -0.001  -0.000  -0.000   0.001   0.000
  0.001  -0.000  -0.000  -0.000  -0.002   0.000   0.000   0.001
 total augmentation occupancy for first ion, spin component:           1
  1.989   0.004  -0.000   0.000   0.000  -0.000   0.000   0.000  -0.002   0.000  -0.000  -0.000  -0.001   0.000   0.000   0.002
  0.004   0.558  -0.006   0.000   0.004   0.002   0.000  -0.001   0.049   0.000  -0.046   0.000  -0.075  -0.021   0.000   0.020
 -0.000  -0.006   2.029   0.000   0.001  -0.016   0.000  -0.001  -0.005   0.000  -0.064   0.000  -0.058   0.002   0.000   0.023
  0.000   0.000   0.000   2.026   0.000   0.000  -0.011   0.000   0.000  -0.064   0.000  -0.001   0.000   0.000   0.024   0.000
  0.000   0.004   0.001   0.000   2.028  -0.001   0.000  -0.013  -0.046   0.000  -0.008   0.000   0.016   0.017   0.000   0.003
 -0.000   0.002  -0.016   0.000  -0.001   0.014   0.000   0.001   0.005   0.000   0.037   0.000   0.034  -0.002   0.000  -0.016
  0.000   0.000   0.000  -0.011   0.000   0.000   0.012   0.000   0.000   0.035   0.000   0.002   0.000   0.000  -0.016   0.000
  0.000  -0.001  -0.001   0.000  -0.013   0.001   0.000   0.013   0.026   0.000   0.005   0.000  -0.010  -0.011   0.000  -0.002
 -0.002   0.049  -0.005   0.000  -0.046   0.005   0.000   0.026   1.211   0.000   0.069   0.000   0.053  -0.524  -0.000  -0.028
  0.000   0.000   0.000  -0.064   0.000   0.000   0.035   0.000   0.000   1.477   0.000   0.129   0.000   0.000  -0.673   0.000
 -0.000  -0.046  -0.064   0.000  -0.008   0.037   0.000   0.005   0.069   0.000   1.045   0.000   0.151  -0.028   0.000  -0.453
 -0.000   0.000   0.000  -0.001   0.000   0.000   0.002   0.000  -0.000   0.129   0.000   1.541   0.000   0.000  -0.060   0.000
 -0.001  -0.075  -0.058   0.000   0.016   0.034   0.000  -0.010   0.053   0.000   0.151   0.000   1.553  -0.024   0.000  -0.066
  0.000  -0.021   0.002   0.000   0.017  -0.002   0.000  -0.011  -0.524   0.000  -0.028  -0.000  -0.024   0.231   0.000   0.012
  0.000   0.000   0.000   0.024   0.000   0.000  -0.016   0.000   0.000  -0.673   0.000  -0.060   0.000   0.000   0.311   0.000
  0.002   0.020   0.023   0.000   0.003  -0.016   0.000  -0.002  -0.028   0.000  -0.453  -0.000  -0.066   0.012   0.000   0.200
 -0.000   0.000   0.000   0.000   0.000   0.000  -0.001   0.000  -0.000  -0.060  -0.000  -0.696   0.000   0.000   0.028   0.000
  0.003   0.032   0.022   0.000  -0.006  -0.015   0.000   0.004  -0.024   0.000  -0.066   0.000  -0.704   0.011   0.000   0.030
  0.007  -0.084  -0.016   0.000   0.006   0.012  -0.000  -0.003   0.005   0.000   0.086   0.000   0.200  -0.003   0.000  -0.038
 -0.000   0.000   0.000   0.012  -0.000   0.000  -0.007   0.000   0.000  -0.011   0.000  -0.255   0.000   0.000   0.005   0.000
  0.009  -0.101   0.004   0.000   0.004  -0.003   0.000  -0.003   0.000  -0.000   0.067   0.000   0.138  -0.000  -0.000  -0.026
  0.000   0.000   0.000  -0.030   0.000   0.000   0.015   0.000   0.000   0.084   0.000   0.003   0.000   0.000  -0.037  -0.000
  0.000  -0.012   0.003   0.000   0.007  -0.003   0.000  -0.009  -0.149   0.000   0.015  -0.000  -0.023   0.062   0.000  -0.007
 -0.000   0.000   0.000  -0.004   0.000   0.000   0.000  -0.000   0.000  -0.003   0.000   0.006  -0.000   0.000   0.001  -0.000
 -0.000   0.020  -0.001   0.000   0.006  -0.001   0.000  -0.005   0.102   0.000  -0.032   0.000   0.018  -0.041   0.000   0.014
 -0.009   0.109   0.023   0.000  -0.009  -0.015   0.000   0.004  -0.005   0.000  -0.112   0.000  -0.260   0.004  -0.000   0.049
  0.000   0.000   0.000  -0.017  -0.000  -0.000   0.009   0.000  -0.000   0.014   0.000   0.332  -0.000   0.000  -0.007   0.000
 -0.011   0.131  -0.005   0.000  -0.006   0.004   0.000   0.004  -0.000   0.000  -0.092  -0.000  -0.179   0.000  -0.000   0.035
 -0.000   0.000   0.000   0.041  -0.000   0.000  -0.019   0.000   0.000  -0.109   0.000  -0.004   0.000   0.000   0.048   0.000
 -0.000   0.016  -0.005   0.000  -0.011   0.003   0.000   0.011   0.197   0.000  -0.020  -0.000   0.029  -0.082   0.000   0.008
  0.000   0.000  -0.000   0.005   0.000   0.000   0.000   0.000  -0.000   0.004  -0.000  -0.008  -0.000   0.000  -0.002   0.000
  0.001  -0.025   0.001   0.000  -0.008   0.001   0.000   0.006  -0.137   0.000   0.042   0.000  -0.023   0.055   0.000  -0.018


------------------------ aborting loop because EDIFF is reached ----------------------------------------


 


 total charge     
 
# of ion     s       p       d       f       tot
------------------------------------------------
  1        2.010   5.694   0.636   0.104   8.444
  2        2.010   5.693   0.635   0.104   8.442
  3        2.010   5.694   0.636   0.104   8.444
  4        2.010   5.693   0.635   0.104   8.442
  5        0.692   1.036   3.928   0.000   5.656
  6        0.691   1.035   3.927   0.000   5.654
  7        0.692   1.034   3.928   0.000   5.654
  8        0.691   1.034   3.925   0.000   5.650
  9        1.265   2.430   0.000   0.000   3.695
 10        1.255   2.485   0.000   0.000   3.740
 11        1.265   2.431   0.000   0.000   3.696
 12        1.255   2.485   0.000   0.000   3.739
 13        1.265   2.430   0.000   0.000   3.695
 14        1.255   2.485   0.000   0.000   3.740
 15        1.265   2.431   0.000   0.000   3.696
 16        1.255   2.485   0.000   0.000   3.739
 17        1.260   2.461   0.000   0.000   3.721
 18        1.260   2.459   0.000   0.000   3.719
 19        1.260   2.461   0.000   0.000   3.721
 20        1.260   2.459   0.000   0.000   3.719
------------------------------------------------
tot       25.927  56.411  18.252   0.417 101.007

 
    CHARGE:  cpu time    0.4549: real time    0.4560
    FORLOC:  cpu time    0.0040: real time    0.0038
    FORNL :  cpu time    3.7214: real time    3.7325
    STRESS:  cpu time   11.3313: real time   11.3555
    FORCOR:  cpu time    0.0280: real time    0.0296
    FORHAR:  cpu time    0.0110: real time    0.0098
    MIXING:  cpu time    0.0010: real time    0.0021
    OFIELD:  cpu time    0.0010: real time    0.0006

  FORCE on cell =-STRESS in cart. coord.  units (eV):
  Direction    XX          YY          ZZ          XY          YZ          ZX
  --------------------------------------------------------------------------------------
  Alpha Z   604.94043   604.94043   604.94043
  Ewald   -2554.86857 -2478.04060 -2563.15314     0.00000     0.00000    -0.00000
  Hartree   287.97460   306.22205   280.70571     0.00000    -0.00000    -0.00000
  E(xc)    -523.18972  -522.98376  -523.39081     0.00000     0.00000    -0.00000
  Local    -302.67757  -398.56598  -285.24790    -0.00000     0.00000     0.00000
  n-local   476.63479   473.22447   476.95920    -1.28318    -0.11627    -0.19572
  augment  -148.62506  -148.07121  -148.31652     0.00000    -0.00000    -0.00000
  Kinetic  2159.73129  2163.28354  2157.39156     4.66494     0.21916     1.06292
  Fock        0.00000     0.00000     0.00000     0.00000     0.00000     0.00000
  -------------------------------------------------------------------------------------
  Total      -0.07981     0.00893    -0.11147     0.00000     0.00000     0.00000
  in kB      -0.49129     0.05495    -0.68623     0.00000     0.00000     0.00000
  external pressure =       -0.37 kB  Pullay stress =        0.00 kB


 VOLUME and BASIS-vectors are now :
 -----------------------------------------------------------------------------
  energy-cutoff  :      520.00
  volume of cell :      260.27
      direct lattice vectors                 reciprocal lattice vectors
     5.672077681  0.000000000  0.000000000     0.176302240  0.000000000  0.000000000
     0.000000000  5.723819950  0.000000000     0.000000000  0.174708500  0.000000000
     0.000000000  0.000000000  8.016561598     0.000000000  0.000000000  0.124741760

  length of vectors
     5.672077681  5.723819950  8.016561598     0.176302240  0.174708500  0.124741760


 FORCES acting on ions
    electron-ion (+dipol)            ewald-force                    non-local-force                 convergence-correction
 -----------------------------------------------------------------------------------------------
   -.651E+01 0.736E+01 -.754E-08   0.644E+01 -.719E+01 0.464E-11   0.884E-01 -.174E+00 -.347E-17   -.452E-02 0.417E-02 -.119E-09
   -.651E+01 -.736E+01 0.816E-08   0.644E+01 0.719E+01 0.466E-11   0.884E-01 0.174E+00 -.173E-17   -.452E-02 -.417E-02 0.437E-09
   0.651E+01 -.736E+01 0.754E-08   -.644E+01 0.719E+01 0.680E-11   -.884E-01 0.174E+00 0.347E-17   0.452E-02 -.417E-02 0.119E-09
   0.651E+01 0.736E+01 -.816E-08   -.644E+01 -.719E+01 0.684E-11   -.884E-01 -.174E+00 0.173E-17   0.452E-02 0.417E-02 -.437E-09
   0.275E-13 0.779E-12 0.873E-12   -.263E-12 -.265E-11 -.114E-10   0.000E+00 0.000E+00 0.000E+00   -.485E-14 -.315E-13 -.125E-13
   -.153E-12 -.410E-12 -.108E-12   0.101E-12 -.416E-12 0.412E-11   0.000E+00 0.000E+00 0.000E+00   -.110E-13 0.409E-13 -.416E-13
   -.804E-13 -.195E-12 0.227E-13   -.100E-12 0.429E-12 0.408E-11   0.000E+00 0.000E+00 0.000E+00   0.242E-14 -.435E-13 -.463E-13
   -.178E-12 -.462E-12 0.266E-12   -.751E-13 0.265E-11 -.115E-10   0.000E+00 0.000E+00 0.000E+00   -.230E-13 0.328E-13 -.185E-13
   -.105E+01 -.153E+01 -.376E+01   0.931E+00 0.179E+01 0.323E+01   0.119E+00 -.254E+00 0.536E+00   -.185E-02 -.217E-02 -.356E-02
   -.105E+01 0.153E+01 0.376E+01   0.931E+00 -.179E+01 -.323E+01   0.119E+00 0.254E+00 -.536E+00   -.185E-02 0.217E-02 0.356E-02
   0.105E+01 0.153E+01 -.376E+01   -.931E+00 -.179E+01 0.323E+01   -.119E+00 0.254E+00 0.536E+00   0.185E-02 0.217E-02 -.356E-02
   0.105E+01 -.153E+01 0.376E+01   -.931E+00 0.179E+01 -.323E+01   -.119E+00 -.254E+00 -.536E+00   0.185E-02 -.217E-02 0.356E-02
   0.105E+01 0.153E+01 0.376E+01   -.931E+00 -.179E+01 -.323E+01   -.119E+00 0.254E+00 -.536E+00   0.185E-02 0.217E-02 0.356E-02
   0.105E+01 -.153E+01 -.376E+01   -.931E+00 0.179E+01 0.323E+01   -.119E+00 -.254E+00 0.536E+00   0.185E-02 -.217E-02 -.356E-02
   -.105E+01 -.153E+01 0.376E+01   0.931E+00 0.179E+01 -.323E+01   0.119E+00 -.254E+00 -.536E+00   -.185E-02 -.217E-02 0.356E-02
   -.105E+01 0.153E+01 -.376E+01   0.931E+00 -.179E+01 0.323E+01   0.119E+00 0.254E+00 0.536E+00   -.185E-02 0.217E-02 -.356E-02
   0.425E+01 -.119E+01 0.241E-08   -.447E+01 0.203E+01 0.123E-11   0.204E+00 -.841E+00 0.000E+00   0.718E-02 0.131E-02 0.150E-12
   0.425E+01 0.119E+01 0.443E-08   -.447E+01 -.203E+01 0.123E-11   0.204E+00 0.841E+00 0.000E+00   0.718E-02 -.131E-02 -.163E-12
   -.425E+01 0.119E+01 -.241E-08   0.447E+01 -.203E+01 0.388E-11   -.204E+00 0.841E+00 0.000E+00   -.718E-02 -.131E-02 -.847E-13
   -.425E+01 -.119E+01 -.444E-08   0.447E+01 0.203E+01 0.390E-11   -.204E+00 -.841E+00 0.000E+00   -.718E-02 0.131E-02 0.231E-12
 -----------------------------------------------------------------------------------------------
   -.814E-10 -.461E-11 -.907E-10   -.187E-13 0.111E-13 0.200E-13   -.278E-16 0.111E-15 0.000E+00   -.336E-12 0.371E-13 -.204E-12
 
 
 POSITION                                       TOTAL-FORCE (eV/Angst)
 -----------------------------------------------------------------------------------
      2.78383      0.01385      2.00414         0.006065      0.003811      0.000000
      5.61987      2.84806      2.00414         0.006065     -0.003811      0.000000
      2.88824      5.70997      6.01242        -0.006065     -0.003811      0.000000
      0.05221      2.87576      6.01242        -0.006065      0.003811      0.000000
      2.83604      2.86191      0.00000         0.000000     -0.000000      0.000000
      0.00000      0.00000      4.00828         0.000000     -0.000000      0.000000
      2.83604      2.86191      4.00828         0.000000     -0.000000      0.000000
      0.00000      0.00000      0.00000         0.000000     -0.000000      0.000000
      1.35119      1.48765      3.77617         0.002437     -0.000606     -0.001261
      4.18723      1.37426      0.23211         0.002437      0.000606      0.001261
      4.32088      4.23617      7.78445        -0.002437      0.000606     -0.001261
      1.48484      4.34956      4.24039        -0.002437     -0.000606      0.001261
      4.32088      4.23617      4.24039        -0.002437      0.000606      0.001261
      1.48484      4.34956      7.78445        -0.002437     -0.000606     -0.001261
      1.35119      1.48765      0.23211         0.002437     -0.000606      0.001261
      4.18723      1.37426      3.77617         0.002437      0.000606     -0.001261
      2.84761      3.17925      2.00414        -0.003006      0.001718      0.000000
      0.01157      5.40648      2.00414        -0.003006     -0.001718      0.000000
      2.82447      2.54457      6.01242         0.003006     -0.001718      0.000000
      5.66051      0.31734      6.01242         0.003006      0.001718      0.000000
 -----------------------------------------------------------------------------------
    total drift:                               -0.000000     -0.000000     -0.000000


--------------------------------------------------------------------------------------------------------



  FREE ENERGIE OF THE ION-ELECTRON SYSTEM (eV)
  ---------------------------------------------------
  free  energy   TOTEN  =      -178.53777468 eV

  energy  without entropy=     -178.53499855  energy(sigma->0) =     -178.53638661
 


--------------------------------------------------------------------------------------------------------


    POTLOK:  cpu time    0.1320: real time    0.1334


--------------------------------------------------------------------------------------------------------


     LOOP+:  cpu time  444.2725: real time  446.6762
    4ORBIT:  cpu time    0.0000: real time    0.0000
 


 total charge     
 
# of ion     s       p       d       f       tot
------------------------------------------------
  1        2.010   5.694   0.636   0.104   8.444
  2        2.010   5.693   0.635   0.104   8.442
  3        2.010   5.694   0.636   0.104   8.444
  4        2.010   5.693   0.635   0.104   8.442
  5        0.692   1.036   3.928   0.000   5.656
  6        0.691   1.035   3.927   0.000   5.654
  7        0.692   1.034   3.928   0.000   5.654
  8        0.691   1.034   3.925   0.000   5.650
  9        1.265   2.430   0.000   0.000   3.695
 10        1.255   2.485   0.000   0.000   3.740
 11        1.265   2.431   0.000   0.000   3.696
 12        1.255   2.485   0.000   0.000   3.739
 13        1.265   2.430   0.000   0.000   3.695
 14        1.255   2.485   0.000   0.000   3.740
 15        1.265   2.431   0.000   0.000   3.696
 16        1.255   2.485   0.000   0.000   3.739
 17        1.260   2.461   0.000   0.000   3.721
 18        1.260   2.459   0.000   0.000   3.719
 19        1.260   2.461   0.000   0.000   3.721
 20        1.260   2.459   0.000   0.000   3.719
------------------------------------------------
tot       25.927  56.411  18.252   0.417 101.007

 

 total amount of memory used by VASP on root node    61417. kBytes
========================================================================

   base      :      30000. kBytes
   nonlr-proj:       5696. kBytes
   fftplans  :       3793. kBytes
   grid      :       2188. kBytes
   one-center:        147. kBytes
   wavefun   :      19593. kBytes
 
  
  
 General timing and accounting informations for this job:
 ========================================================
  
                  Total CPU time used (sec):      483.227
                            User time (sec):      459.822
                          System time (sec):       23.404
                         Elapsed time (sec):      493.094
  
                   Maximum memory used (kb):      271948.
                   Average memory used (kb):           0.
  
                          Minor page faults:       114627
                          Major page faults:            3
                 Voluntary context switches:         2427
