 vasp.5.4.4.18Apr17-6-g9f103f2a35 (build Jan 10 2024 09:48:00) complex          
  
 executed on             LinuxIFC date 2024.04.20  12:34:38
 running on   64 total cores
 distrk:  each k-point on   64 cores,    1 groups
 distr:  one band on NCORES_PER_BAND=   8 cores,    8 groups


--------------------------------------------------------------------------------------------------------


 INCAR:
 POTCAR:    PAW_PBE Mo_sv 02Feb2006               
 POTCAR:    PAW_PBE H 15Jun2001                   
 POTCAR:    PAW_PBE Mo_sv 02Feb2006               
   VRHFIN =Mo: 4p5s4d                                                           
   LEXCH  = PE                                                                  
   EATOM  =  1862.2866 eV,  136.8742 Ry                                         
                                                                                
   TITEL  = PAW_PBE Mo_sv 02Feb2006                                             
   LULTRA =        F    use ultrasoft PP ?                                      
   IUNSCR =        1    unscreen: 0-lin 1-nonlin 2-no                           
   RPACOR =    2.200    partial core radius                                     
   POMASS =   95.940; ZVAL   =   14.000    mass and valenz                      
   RCORE  =    2.500    outmost cutoff radius                                   
   RWIGS  =    2.750; RWIGS  =    1.455    wigner-seitz radius (au A)           
   ENMAX  =  242.676; ENMIN  =  182.007 eV                                      
   ICORE  =        3    local potential                                         
   LCOR   =        T    correct aug charges                                     
   LPAW   =        T    paw PP                                                  
   EAUG   =  446.014                                                            
   DEXC   =    0.000                                                            
   RMAX   =    2.563    core radius for proj-oper                               
   RAUG   =    1.300    factor for augmentation sphere                          
   RDEP   =    2.641    radius for radial grids                                 
   RDEPT  =    2.031    core radius for aug-charge                              
                                                                                
   Atomic configuration                                                         
   11 entries                                                                   
     n  l   j            E        occ.                                          
     1  0  0.50    -19819.0341   2.0000                                         
     2  0  0.50     -2799.0127   2.0000                                         
     2  1  1.50     -2502.0276   6.0000                                         
     3  0  0.50      -476.4449   2.0000                                         
     3  1  1.50      -379.1496   6.0000                                         
     3  2  2.50      -220.9367  10.0000                                         
     4  0  0.50       -64.3378   2.0000                                         
     5  0  0.50        -4.0862   1.0000                                         
     4  1  1.50       -38.4773   6.0000                                         
     4  2  2.50        -3.7535   5.0000                                         
     4  3  2.50        -1.3606   0.0000                                         
   Description                                                                  
     l       E           TYP  RCUT    TYP  RCUT                                 
     0    -64.3377829     23  2.100                                             
     0     -4.0861640     23  2.400                                             
     1    -38.4772993     23  2.100                                             
     1     13.6058260     23  2.100                                             
     2     -3.7534941     23  2.400                                             
     2     -5.1140767     23  2.400                                             
     3     -4.0817478     23  2.500                                             
  local pseudopotential read in
  partial core-charges read in
  partial kinetic energy density read in
  atomic valenz-charges read in
  non local Contribution for L=           0  read in
    real space projection operators read in
  non local Contribution for L=           0  read in
    real space projection operators read in
  non local Contribution for L=           1  read in
    real space projection operators read in
  non local Contribution for L=           1  read in
    real space projection operators read in
  non local Contribution for L=           2  read in
    real space projection operators read in
  non local Contribution for L=           2  read in
    real space projection operators read in
    PAW grid and wavefunctions read in
 
   number of l-projection  operators is LMAX  =           6
   number of lm-projection operators is LMMAX =          18
 
 POTCAR:    PAW_PBE H 15Jun2001                   
   VRHFIN =H: ultrasoft test                                                    
   LEXCH  = PE                                                                  
   EATOM  =    12.4884 eV,    0.9179 Ry                                         
                                                                                
   TITEL  = PAW_PBE H 15Jun2001                                                 
   LULTRA =        F    use ultrasoft PP ?                                      
   IUNSCR =        0    unscreen: 0-lin 1-nonlin 2-no                           
   RPACOR =    0.000    partial core radius                                     
   POMASS =    1.000; ZVAL   =    1.000    mass and valenz                      
   RCORE  =    1.100    outmost cutoff radius                                   
   RWIGS  =    0.700; RWIGS  =    0.370    wigner-seitz radius (au A)           
   ENMAX  =  250.000; ENMIN  =  200.000 eV                                      
   RCLOC  =    0.701    cutoff for local pot                                    
   LCOR   =        T    correct aug charges                                     
   LPAW   =        T    paw PP                                                  
   EAUG   =  400.000                                                            
   RMAX   =    1.123    core radius for proj-oper                               
   RAUG   =    1.200    factor for augmentation sphere                          
   RDEP   =    1.112    radius for radial grids                                 
   RDEPT  =    0.926    core radius for aug-charge                              
                                                                                
   Atomic configuration                                                         
    2 entries                                                                   
     n  l   j            E        occ.                                          
     1  0  0.50        -6.4927   1.0000                                         
     2  1  0.50        -3.4015   0.0000                                         
   Description                                                                  
     l       E           TYP  RCUT    TYP  RCUT                                 
     0     -6.4927494     23  1.100                                             
     0      6.8029130     23  1.100                                             
     1     -4.0817478     23  1.100                                             
  local pseudopotential read in
  atomic valenz-charges read in
  non local Contribution for L=           0  read in
    real space projection operators read in
  non local Contribution for L=           0  read in
    real space projection operators read in
  non local Contribution for L=           1  read in
    real space projection operators read in
    PAW grid and wavefunctions read in
 
   number of l-projection  operators is LMAX  =           3
   number of lm-projection operators is LMMAX =           5
 
  PAW_PBE Mo_sv 02Feb2006               :
 energy of atom  1       EATOM=-1862.2866
 kinetic energy error for atom=    0.0070 (will be added to EATOM!!)
  PAW_PBE H 15Jun2001                   :
 energy of atom  2       EATOM=  -12.4884
 kinetic energy error for atom=    0.0014 (will be added to EATOM!!)
 
 
 POSCAR: Mo2 H4                                  
  positions in direct lattice
  velocities in cartesian coordinates
 exchange correlation table for  LEXCH =        8
   RHO(1)=    0.500       N(1)  =     2000
   RHO(2)=  100.500       N(2)  =     4000
 


--------------------------------------------------------------------------------------------------------


 ion  position               nearest neighbor table
   1  0.667  0.333  0.448-   5 1.84   3 1.90   3 1.90   3 1.90   6 1.93   6 1.93   6 1.93   2 3.05
                             2 3.05   2 3.05   2 3.05   2 3.05   2 3.05
   2  0.333  0.667  0.948-   6 1.84   4 1.90   4 1.90   4 1.90   5 1.93   5 1.93   5 1.93   1 3.05
                             1 3.05   1 3.05   1 3.05   1 3.05   1 3.05
   3  0.000  0.000  0.552-   1 1.90   1 1.90   1 1.90
   4  0.000  0.000  0.052-   2 1.90   2 1.90   2 1.90
   5  0.667  0.333  0.825-   1 1.84   2 1.93   2 1.93   2 1.93
   6  0.333  0.667  0.325-   2 1.84   1 1.93   1 1.93   1 1.93
 
  LATTYP: Found a hexagonal cell.
 ALAT       =     3.1736898625
 C/A-ratio  =     1.5360952240
  
  Lattice vectors:
  
 A1 = (   1.5868449312,  -2.7484960561,   0.0000000000)
 A2 = (   1.5868449312,   2.7484960561,   0.0000000000)
 A3 = (   0.0000000000,   0.0000000000,   4.8750898402)


Analysis of symmetry for initial positions (statically):
=====================================================================
 Subroutine PRICEL returns:
 Original cell was already a primitive cell.
 

 Routine SETGRP: Setting up the symmetry group for a 
 hexagonal supercell.


 Subroutine GETGRP returns: Found 12 space group operations
 (whereof  6 operations were pure point group operations)
 out of a pool of 24 trial point group operations.


The static configuration has the point symmetry C_3v.
 The point group associated with its full space group is C_6v.


Analysis of symmetry for dynamics (positions and initial velocities):
=====================================================================
 Subroutine PRICEL returns:
 Original cell was already a primitive cell.
 

 Routine SETGRP: Setting up the symmetry group for a 
 hexagonal supercell.


 Subroutine GETGRP returns: Found 12 space group operations
 (whereof  6 operations were pure point group operations)
 out of a pool of 24 trial point group operations.


The dynamic configuration has the point symmetry C_3v.
 The point group associated with its full space group is C_6v.


Analysis of structural, dynamic, and magnetic symmetry:
=====================================================================
 Subroutine PRICEL returns:
 Original cell was already a primitive cell.
 

 Routine SETGRP: Setting up the symmetry group for a 
 hexagonal supercell.


 Subroutine GETGRP returns: Found 12 space group operations
 (whereof  6 operations were pure point group operations)
 out of a pool of 24 trial point group operations.


The magnetic configuration has the point symmetry C_3v.
 The point group associated with its full space group is C_6v.


 Subroutine INISYM returns: Found 12 space group operations
 (whereof  6 operations are pure point group operations),
 and found     1 'primitive' translations

 
 
 KPOINTS: 0.040  12  12   5   57  0.040  200    9 
  k-points in reciprocal lattice
Space group operators:
 irot       det(A)        alpha          n_x          n_y          n_z        tau_x        tau_y        tau_z
    1     1.000000     0.000000     1.000000     0.000000     0.000000     0.000000     0.000000     0.000000
    2     1.000000   120.000000     0.000000     0.000000    -1.000000     0.000000     0.000000     0.000000
    3     1.000000   120.000000     0.000000     0.000000     1.000000     0.000000     0.000000     0.000000
    4    -1.000000   180.000000     0.500000    -0.866025     0.000000     0.000000     0.000000     0.000000
    5    -1.000000   180.000000    -0.500000    -0.866025     0.000000     0.000000     0.000000     0.000000
    6    -1.000000   180.000000     1.000000     0.000000     0.000000     0.000000     0.000000     0.000000
    7     1.000000    60.000000     0.000000     0.000000    -1.000000     0.000001     0.000000     0.500000
    8     1.000000   180.000000     0.000000     0.000000     1.000000     0.000000     0.000000     0.500000
    9     1.000000    60.000000     0.000000     0.000000     1.000000     0.000000     0.000000     0.500000
   10    -1.000000   180.000000     0.000000     1.000000     0.000000     0.000000     0.000000     0.500000
   11    -1.000000   180.000000     0.866025     0.500000     0.000000     0.000001     0.000000     0.500000
   12    -1.000000   180.000000     0.866025    -0.500000     0.000000     0.000000     0.000000     0.500000

 ----------------------------------------------------------------------------- 
|                                                                             |
|           W    W    AA    RRRRR   N    N  II  N    N   GGGG   !!!           |
|           W    W   A  A   R    R  NN   N  II  NN   N  G    G  !!!           |
|           W    W  A    A  R    R  N N  N  II  N N  N  G       !!!           |
|           W WW W  AAAAAA  RRRRR   N  N N  II  N  N N  G  GGG   !            |
|           WW  WW  A    A  R   R   N   NN  II  N   NN  G    G                |
|           W    W  A    A  R    R  N    N  II  N    N   GGGG   !!!           |
|                                                                             |
|      Your generating k-point grid is not commensurate to the symmetry       |
|      of the lattice.  This can cause   slow convergence with respect        |
|      to k-points for HF type calculations                                   |
|      suggested SOLUTIONS:                                                   |
|       ) if not already the case, use automatic k-point generation           |
|       ) shift your grid to Gamma (G) (e.g. required for hex or fcc lattice) |
|                                                                             |
 ----------------------------------------------------------------------------- 

 
 Subroutine IBZKPT_HF returns following result:
 ==============================================
 
 Found    920 k-points in 1st BZ
 the following    920 k-points will be used (e.g. in the exchange kernel)
 Following reciprocal coordinates:   # in IRBZ
  0.000000  0.000000  0.000000    0.00138889   1 t-inv F
  0.083333  0.000000  0.000000    0.00138889   2 t-inv F
  0.166667  0.000000  0.000000    0.00138889   3 t-inv F
  0.250000  0.000000  0.000000    0.00138889   4 t-inv F
  0.333333  0.000000  0.000000    0.00138889   5 t-inv F
  0.416667  0.000000  0.000000    0.00138889   6 t-inv F
  0.500000  0.000000  0.000000    0.00138889   7 t-inv F
  0.083333  0.083333  0.000000    0.00138889   8 t-inv F
  0.166667  0.083333  0.000000    0.00138889   9 t-inv F
  0.250000  0.083333  0.000000    0.00138889  10 t-inv F
  0.333333  0.083333  0.000000    0.00138889  11 t-inv F
  0.416667  0.083333  0.000000    0.00138889  12 t-inv F
  0.166667  0.166667  0.000000    0.00138889  13 t-inv F
  0.250000  0.166667  0.000000    0.00138889  14 t-inv F
  0.333333  0.166667  0.000000    0.00138889  15 t-inv F
  0.416667  0.166667  0.000000    0.00138889  16 t-inv F
  0.250000  0.250000  0.000000    0.00138889  17 t-inv F
  0.333333  0.250000  0.000000    0.00138889  18 t-inv F
  0.333333  0.333333  0.000000    0.00138889  19 t-inv F
  0.000000  0.000000  0.200000    0.00138889  20 t-inv F
  0.083333  0.000000  0.200000    0.00138889  21 t-inv F
  0.166667  0.000000  0.200000    0.00138889  22 t-inv F
  0.250000  0.000000  0.200000    0.00138889  23 t-inv F
  0.333333  0.000000  0.200000    0.00138889  24 t-inv F
  0.416667  0.000000  0.200000    0.00138889  25 t-inv F
  0.500000  0.000000  0.200000    0.00138889  26 t-inv F
  0.083333  0.083333  0.200000    0.00138889  27 t-inv F
  0.166667  0.083333  0.200000    0.00138889  28 t-inv F
  0.250000  0.083333  0.200000    0.00138889  29 t-inv F
  0.333333  0.083333  0.200000    0.00138889  30 t-inv F
  0.416667  0.083333  0.200000    0.00138889  31 t-inv F
  0.166667  0.166667  0.200000    0.00138889  32 t-inv F
  0.250000  0.166667  0.200000    0.00138889  33 t-inv F
  0.333333  0.166667  0.200000    0.00138889  34 t-inv F
  0.416667  0.166667  0.200000    0.00138889  35 t-inv F
  0.250000  0.250000  0.200000    0.00138889  36 t-inv F
  0.333333  0.250000  0.200000    0.00138889  37 t-inv F
  0.333333  0.333333  0.200000    0.00138889  38 t-inv F
  0.000000  0.000000  0.400000    0.00138889  39 t-inv F
  0.083333  0.000000  0.400000    0.00138889  40 t-inv F
  0.166667  0.000000  0.400000    0.00138889  41 t-inv F
  0.250000  0.000000  0.400000    0.00138889  42 t-inv F
  0.333333  0.000000  0.400000    0.00138889  43 t-inv F
  0.416667  0.000000  0.400000    0.00138889  44 t-inv F
  0.500000  0.000000  0.400000    0.00138889  45 t-inv F
  0.083333  0.083333  0.400000    0.00138889  46 t-inv F
  0.166667  0.083333  0.400000    0.00138889  47 t-inv F
  0.250000  0.083333  0.400000    0.00138889  48 t-inv F
  0.333333  0.083333  0.400000    0.00138889  49 t-inv F
  0.416667  0.083333  0.400000    0.00138889  50 t-inv F
  0.166667  0.166667  0.400000    0.00138889  51 t-inv F
  0.250000  0.166667  0.400000    0.00138889  52 t-inv F
  0.333333  0.166667  0.400000    0.00138889  53 t-inv F
  0.416667  0.166667  0.400000    0.00138889  54 t-inv F
  0.250000  0.250000  0.400000    0.00138889  55 t-inv F
  0.333333  0.250000  0.400000    0.00138889  56 t-inv F
  0.333333  0.333333  0.400000    0.00138889  57 t-inv F
  0.000000  0.000000  0.000000    0.00000000  58 t-inv F
  0.018519  0.000000  0.000000    0.00000000  59 t-inv F
  0.037037  0.000000  0.000000    0.00000000  60 t-inv F
  0.055556  0.000000  0.000000    0.00000000  61 t-inv F
  0.074074  0.000000  0.000000    0.00000000  62 t-inv F
  0.092593  0.000000  0.000000    0.00000000  63 t-inv F
  0.111111  0.000000  0.000000    0.00000000  64 t-inv F
  0.129630  0.000000  0.000000    0.00000000  65 t-inv F
  0.148148  0.000000  0.000000    0.00000000  66 t-inv F
  0.166667  0.000000  0.000000    0.00000000  67 t-inv F
  0.185185  0.000000  0.000000    0.00000000  68 t-inv F
  0.203704  0.000000  0.000000    0.00000000  69 t-inv F
  0.222222  0.000000  0.000000    0.00000000  70 t-inv F
  0.240741  0.000000  0.000000    0.00000000  71 t-inv F
  0.259259  0.000000  0.000000    0.00000000  72 t-inv F
  0.277778  0.000000  0.000000    0.00000000  73 t-inv F
  0.296296  0.000000  0.000000    0.00000000  74 t-inv F
  0.314815  0.000000  0.000000    0.00000000  75 t-inv F
  0.333333  0.000000  0.000000    0.00000000  76 t-inv F
  0.351852  0.000000  0.000000    0.00000000  77 t-inv F
  0.370370  0.000000  0.000000    0.00000000  78 t-inv F
  0.388889  0.000000  0.000000    0.00000000  79 t-inv F
  0.407407  0.000000  0.000000    0.00000000  80 t-inv F
  0.425926  0.000000  0.000000    0.00000000  81 t-inv F
  0.444444  0.000000  0.000000    0.00000000  82 t-inv F
  0.462963  0.000000  0.000000    0.00000000  83 t-inv F
  0.481481  0.000000  0.000000    0.00000000  84 t-inv F
  0.500000  0.000000  0.000000    0.00000000  85 t-inv F
  0.500000  0.000000  0.000000    0.00000000  86 t-inv F
  0.488889  0.022222  0.000000    0.00000000  87 t-inv F
  0.477778  0.044444  0.000000    0.00000000  88 t-inv F
  0.466667  0.066667  0.000000    0.00000000  89 t-inv F
  0.455556  0.088889  0.000000    0.00000000  90 t-inv F
  0.444444  0.111111  0.000000    0.00000000  91 t-inv F
  0.433333  0.133333  0.000000    0.00000000  92 t-inv F
  0.422222  0.155556  0.000000    0.00000000  93 t-inv F
  0.411111  0.177778  0.000000    0.00000000  94 t-inv F
  0.400000  0.200000  0.000000    0.00000000  95 t-inv F
  0.388889  0.222222  0.000000    0.00000000  96 t-inv F
  0.377778  0.244444  0.000000    0.00000000  97 t-inv F
  0.366667  0.266667  0.000000    0.00000000  98 t-inv F
  0.355556  0.288889  0.000000    0.00000000  99 t-inv F
  0.344444  0.311111  0.000000    0.00000000 100 t-inv F
  0.333333  0.333333  0.000000    0.00000000 101 t-inv F
  0.333333  0.333333  0.000000    0.00000000 102 t-inv F
  0.322581  0.322581  0.000000    0.00000000 103 t-inv F
  0.311828  0.311828  0.000000    0.00000000 104 t-inv F
  0.301075  0.301075  0.000000    0.00000000 105 t-inv F
  0.290323  0.290323  0.000000    0.00000000 106 t-inv F
  0.279570  0.279570  0.000000    0.00000000 107 t-inv F
  0.268817  0.268817  0.000000    0.00000000 108 t-inv F
  0.258065  0.258065  0.000000    0.00000000 109 t-inv F
  0.247312  0.247312  0.000000    0.00000000 110 t-inv F
  0.236559  0.236559  0.000000    0.00000000 111 t-inv F
  0.225806  0.225806  0.000000    0.00000000 112 t-inv F
  0.215054  0.215054  0.000000    0.00000000 113 t-inv F
  0.204301  0.204301  0.000000    0.00000000 114 t-inv F
  0.193548  0.193548  0.000000    0.00000000 115 t-inv F
  0.182796  0.182796  0.000000    0.00000000 116 t-inv F
  0.172043  0.172043  0.000000    0.00000000 117 t-inv F
  0.161290  0.161290  0.000000    0.00000000 118 t-inv F
  0.150538  0.150538  0.000000    0.00000000 119 t-inv F
  0.139785  0.139785  0.000000    0.00000000 120 t-inv F
  0.129032  0.129032  0.000000    0.00000000 121 t-inv F
  0.118280  0.118280  0.000000    0.00000000 122 t-inv F
  0.107527  0.107527  0.000000    0.00000000 123 t-inv F
  0.096774  0.096774  0.000000    0.00000000 124 t-inv F
  0.086022  0.086022  0.000000    0.00000000 125 t-inv F
  0.075269  0.075269  0.000000    0.00000000 126 t-inv F
  0.064516  0.064516  0.000000    0.00000000 127 t-inv F
  0.053763  0.053763  0.000000    0.00000000 128 t-inv F
  0.043011  0.043011  0.000000    0.00000000 129 t-inv F
  0.032258  0.032258  0.000000    0.00000000 130 t-inv F
  0.021505  0.021505  0.000000    0.00000000 131 t-inv F
  0.010753  0.010753  0.000000    0.00000000 132 t-inv F
  0.000000  0.000000  0.000000    0.00000000 133 t-inv F
  0.000000  0.000000  0.000000    0.00000000 134 t-inv F
  0.000000  0.000000  0.033333    0.00000000 135 t-inv F
  0.000000  0.000000  0.066667    0.00000000 136 t-inv F
  0.000000  0.000000  0.100000    0.00000000 137 t-inv F
  0.000000  0.000000  0.133333    0.00000000 138 t-inv F
  0.000000  0.000000  0.166667    0.00000000 139 t-inv F
  0.000000  0.000000  0.200000    0.00000000 140 t-inv F
  0.000000  0.000000  0.233333    0.00000000 141 t-inv F
  0.000000  0.000000  0.266667    0.00000000 142 t-inv F
  0.000000  0.000000  0.300000    0.00000000 143 t-inv F
  0.000000  0.000000  0.333333    0.00000000 144 t-inv F
  0.000000  0.000000  0.366667    0.00000000 145 t-inv F
  0.000000  0.000000  0.400000    0.00000000 146 t-inv F
  0.000000  0.000000  0.433333    0.00000000 147 t-inv F
  0.000000  0.000000  0.466667    0.00000000 148 t-inv F
  0.000000  0.000000  0.500000    0.00000000 149 t-inv F
  0.000000  0.000000  0.500000    0.00000000 150 t-inv F
  0.018519  0.000000  0.500000    0.00000000 151 t-inv F
  0.037037  0.000000  0.500000    0.00000000 152 t-inv F
  0.055556  0.000000  0.500000    0.00000000 153 t-inv F
  0.074074  0.000000  0.500000    0.00000000 154 t-inv F
  0.092593  0.000000  0.500000    0.00000000 155 t-inv F
  0.111111  0.000000  0.500000    0.00000000 156 t-inv F
  0.129630  0.000000  0.500000    0.00000000 157 t-inv F
  0.148148  0.000000  0.500000    0.00000000 158 t-inv F
  0.166667  0.000000  0.500000    0.00000000 159 t-inv F
  0.185185  0.000000  0.500000    0.00000000 160 t-inv F
  0.203704  0.000000  0.500000    0.00000000 161 t-inv F
  0.222222  0.000000  0.500000    0.00000000 162 t-inv F
  0.240741  0.000000  0.500000    0.00000000 163 t-inv F
  0.259259  0.000000  0.500000    0.00000000 164 t-inv F
  0.277778  0.000000  0.500000    0.00000000 165 t-inv F
  0.296296  0.000000  0.500000    0.00000000 166 t-inv F
  0.314815  0.000000  0.500000    0.00000000 167 t-inv F
  0.333333  0.000000  0.500000    0.00000000 168 t-inv F
  0.351852  0.000000  0.500000    0.00000000 169 t-inv F
  0.370370  0.000000  0.500000    0.00000000 170 t-inv F
  0.388889  0.000000  0.500000    0.00000000 171 t-inv F
  0.407407  0.000000  0.500000    0.00000000 172 t-inv F
  0.425926  0.000000  0.500000    0.00000000 173 t-inv F
  0.444444  0.000000  0.500000    0.00000000 174 t-inv F
  0.462963  0.000000  0.500000    0.00000000 175 t-inv F
  0.481481  0.000000  0.500000    0.00000000 176 t-inv F
  0.500000  0.000000  0.500000    0.00000000 177 t-inv F
  0.500000  0.000000  0.500000    0.00000000 178 t-inv F
  0.488889  0.022222  0.500000    0.00000000 179 t-inv F
  0.477778  0.044444  0.500000    0.00000000 180 t-inv F
  0.466667  0.066667  0.500000    0.00000000 181 t-inv F
  0.455556  0.088889  0.500000    0.00000000 182 t-inv F
  0.444444  0.111111  0.500000    0.00000000 183 t-inv F
  0.433333  0.133333  0.500000    0.00000000 184 t-inv F
  0.422222  0.155556  0.500000    0.00000000 185 t-inv F
  0.411111  0.177778  0.500000    0.00000000 186 t-inv F
  0.400000  0.200000  0.500000    0.00000000 187 t-inv F
  0.388889  0.222222  0.500000    0.00000000 188 t-inv F
  0.377778  0.244444  0.500000    0.00000000 189 t-inv F
  0.366667  0.266667  0.500000    0.00000000 190 t-inv F
  0.355556  0.288889  0.500000    0.00000000 191 t-inv F
  0.344444  0.311111  0.500000    0.00000000 192 t-inv F
  0.333333  0.333333  0.500000    0.00000000 193 t-inv F
  0.333333  0.333333  0.500000    0.00000000 194 t-inv F
  0.322581  0.322581  0.500000    0.00000000 195 t-inv F
  0.311828  0.311828  0.500000    0.00000000 196 t-inv F
  0.301075  0.301075  0.500000    0.00000000 197 t-inv F
  0.290323  0.290323  0.500000    0.00000000 198 t-inv F
  0.279570  0.279570  0.500000    0.00000000 199 t-inv F
  0.268817  0.268817  0.500000    0.00000000 200 t-inv F
  0.258065  0.258065  0.500000    0.00000000 201 t-inv F
  0.247312  0.247312  0.500000    0.00000000 202 t-inv F
  0.236559  0.236559  0.500000    0.00000000 203 t-inv F
  0.225806  0.225806  0.500000    0.00000000 204 t-inv F
  0.215054  0.215054  0.500000    0.00000000 205 t-inv F
  0.204301  0.204301  0.500000    0.00000000 206 t-inv F
  0.193548  0.193548  0.500000    0.00000000 207 t-inv F
  0.182796  0.182796  0.500000    0.00000000 208 t-inv F
  0.172043  0.172043  0.500000    0.00000000 209 t-inv F
  0.161290  0.161290  0.500000    0.00000000 210 t-inv F
  0.150538  0.150538  0.500000    0.00000000 211 t-inv F
  0.139785  0.139785  0.500000    0.00000000 212 t-inv F
  0.129032  0.129032  0.500000    0.00000000 213 t-inv F
  0.118280  0.118280  0.500000    0.00000000 214 t-inv F
  0.107527  0.107527  0.500000    0.00000000 215 t-inv F
  0.096774  0.096774  0.500000    0.00000000 216 t-inv F
  0.086022  0.086022  0.500000    0.00000000 217 t-inv F
  0.075269  0.075269  0.500000    0.00000000 218 t-inv F
  0.064516  0.064516  0.500000    0.00000000 219 t-inv F
  0.053763  0.053763  0.500000    0.00000000 220 t-inv F
  0.043011  0.043011  0.500000    0.00000000 221 t-inv F
  0.032258  0.032258  0.500000    0.00000000 222 t-inv F
  0.021505  0.021505  0.500000    0.00000000 223 t-inv F
  0.010753  0.010753  0.500000    0.00000000 224 t-inv F
  0.000000  0.000000  0.500000    0.00000000 225 t-inv F
  0.500000  0.000000  0.500000    0.00000000 226 t-inv F
  0.500000  0.000000  0.466667    0.00000000 227 t-inv F
  0.500000  0.000000  0.433333    0.00000000 228 t-inv F
  0.500000  0.000000  0.400000    0.00000000 229 t-inv F
  0.500000  0.000000  0.366667    0.00000000 230 t-inv F
  0.500000  0.000000  0.333333    0.00000000 231 t-inv F
  0.500000  0.000000  0.300000    0.00000000 232 t-inv F
  0.500000  0.000000  0.266667    0.00000000 233 t-inv F
  0.500000  0.000000  0.233333    0.00000000 234 t-inv F
  0.500000  0.000000  0.200000    0.00000000 235 t-inv F
  0.500000  0.000000  0.166667    0.00000000 236 t-inv F
  0.500000  0.000000  0.133333    0.00000000 237 t-inv F
  0.500000  0.000000  0.100000    0.00000000 238 t-inv F
  0.500000  0.000000  0.066667    0.00000000 239 t-inv F
  0.500000  0.000000  0.033333    0.00000000 240 t-inv F
  0.500000  0.000000  0.000000    0.00000000 241 t-inv F
  0.333333  0.333333  0.500000    0.00000000 242 t-inv F
  0.333333  0.333333  0.466667    0.00000000 243 t-inv F
  0.333333  0.333333  0.433333    0.00000000 244 t-inv F
  0.333333  0.333333  0.400000    0.00000000 245 t-inv F
  0.333333  0.333333  0.366667    0.00000000 246 t-inv F
  0.333333  0.333333  0.333333    0.00000000 247 t-inv F
  0.333333  0.333333  0.300000    0.00000000 248 t-inv F
  0.333333  0.333333  0.266667    0.00000000 249 t-inv F
  0.333333  0.333333  0.233333    0.00000000 250 t-inv F
  0.333333  0.333333  0.200000    0.00000000 251 t-inv F
  0.333333  0.333333  0.166667    0.00000000 252 t-inv F
  0.333333  0.333333  0.133333    0.00000000 253 t-inv F
  0.333333  0.333333  0.100000    0.00000000 254 t-inv F
  0.333333  0.333333  0.066667    0.00000000 255 t-inv F
  0.333333  0.333333  0.033333    0.00000000 256 t-inv F
  0.333333  0.333333  0.000000    0.00000000 257 t-inv F
 -0.083333  0.083333  0.000000    0.00138889   2 t-inv F
  0.000000 -0.083333  0.000000    0.00138889   2 t-inv F
  0.000000  0.083333  0.000000    0.00138889   2 t-inv F
 -0.083333  0.000000  0.000000    0.00138889   2 t-inv F
  0.083333 -0.083333  0.000000    0.00138889   2 t-inv F
 -0.166667  0.166667  0.000000    0.00138889   3 t-inv F
  0.000000 -0.166667  0.000000    0.00138889   3 t-inv F
  0.000000  0.166667  0.000000    0.00138889   3 t-inv F
 -0.166667  0.000000  0.000000    0.00138889   3 t-inv F
  0.166667 -0.166667  0.000000    0.00138889   3 t-inv F
 -0.250000  0.250000  0.000000    0.00138889   4 t-inv F
  0.000000 -0.250000  0.000000    0.00138889   4 t-inv F
  0.000000  0.250000  0.000000    0.00138889   4 t-inv F
 -0.250000  0.000000  0.000000    0.00138889   4 t-inv F
  0.250000 -0.250000  0.000000    0.00138889   4 t-inv F
 -0.333333  0.333333  0.000000    0.00138889   5 t-inv F
  0.000000 -0.333333  0.000000    0.00138889   5 t-inv F
  0.000000  0.333333  0.000000    0.00138889   5 t-inv F
 -0.333333  0.000000  0.000000    0.00138889   5 t-inv F
  0.333333 -0.333333  0.000000    0.00138889   5 t-inv F
 -0.416667  0.416667  0.000000    0.00138889   6 t-inv F
  0.000000 -0.416667  0.000000    0.00138889   6 t-inv F
  0.000000  0.416667  0.000000    0.00138889   6 t-inv F
 -0.416667  0.000000  0.000000    0.00138889   6 t-inv F
  0.416667 -0.416667  0.000000    0.00138889   6 t-inv F
 -0.500000  0.500000  0.000000    0.00138889   7 t-inv F
  0.000000 -0.500000  0.000000    0.00138889   7 t-inv F
 -0.166667  0.083333  0.000000    0.00138889   8 t-inv F
  0.083333 -0.166667  0.000000    0.00138889   8 t-inv F
 -0.083333  0.166667  0.000000    0.00138889   8 t-inv F
  0.166667 -0.083333  0.000000    0.00138889   8 t-inv F
 -0.083333 -0.083333  0.000000    0.00138889   8 t-inv F
 -0.250000  0.166667  0.000000    0.00138889   9 t-inv F
  0.083333 -0.250000  0.000000    0.00138889   9 t-inv F
 -0.166667  0.250000  0.000000    0.00138889   9 t-inv F
  0.250000 -0.083333  0.000000    0.00138889   9 t-inv F
 -0.083333 -0.166667  0.000000    0.00138889   9 t-inv F
 -0.083333  0.250000  0.000000    0.00138889   9 t-inv F
 -0.166667 -0.083333  0.000000    0.00138889   9 t-inv F
  0.250000 -0.166667  0.000000    0.00138889   9 t-inv F
  0.083333  0.166667  0.000000    0.00138889   9 t-inv F
  0.166667 -0.250000  0.000000    0.00138889   9 t-inv F
 -0.250000  0.083333  0.000000    0.00138889   9 t-inv F
 -0.333333  0.250000  0.000000    0.00138889  10 t-inv F
  0.083333 -0.333333  0.000000    0.00138889  10 t-inv F
 -0.250000  0.333333  0.000000    0.00138889  10 t-inv F
  0.333333 -0.083333  0.000000    0.00138889  10 t-inv F
 -0.083333 -0.250000  0.000000    0.00138889  10 t-inv F
 -0.083333  0.333333  0.000000    0.00138889  10 t-inv F
 -0.250000 -0.083333  0.000000    0.00138889  10 t-inv F
  0.333333 -0.250000  0.000000    0.00138889  10 t-inv F
  0.083333  0.250000  0.000000    0.00138889  10 t-inv F
  0.250000 -0.333333  0.000000    0.00138889  10 t-inv F
 -0.333333  0.083333  0.000000    0.00138889  10 t-inv F
 -0.416667  0.333333  0.000000    0.00138889  11 t-inv F
  0.083333 -0.416667  0.000000    0.00138889  11 t-inv F
 -0.333333  0.416667  0.000000    0.00138889  11 t-inv F
  0.416667 -0.083333  0.000000    0.00138889  11 t-inv F
 -0.083333 -0.333333  0.000000    0.00138889  11 t-inv F
 -0.083333  0.416667  0.000000    0.00138889  11 t-inv F
 -0.333333 -0.083333  0.000000    0.00138889  11 t-inv F
  0.416667 -0.333333  0.000000    0.00138889  11 t-inv F
  0.083333  0.333333  0.000000    0.00138889  11 t-inv F
  0.333333 -0.416667  0.000000    0.00138889  11 t-inv F
 -0.416667  0.083333  0.000000    0.00138889  11 t-inv F
 -0.500000  0.416667  0.000000    0.00138889  12 t-inv F
  0.083333 -0.500000  0.000000    0.00138889  12 t-inv F
 -0.416667  0.500000  0.000000    0.00138889  12 t-inv F
  0.500000 -0.083333  0.000000    0.00138889  12 t-inv F
 -0.083333 -0.416667  0.000000    0.00138889  12 t-inv F
 -0.083333  0.500000  0.000000    0.00138889  12 t-inv F
 -0.416667 -0.083333  0.000000    0.00138889  12 t-inv F
  0.500000 -0.416667  0.000000    0.00138889  12 t-inv F
  0.083333  0.416667  0.000000    0.00138889  12 t-inv F
  0.416667 -0.500000  0.000000    0.00138889  12 t-inv F
 -0.500000  0.083333  0.000000    0.00138889  12 t-inv F
 -0.333333  0.166667  0.000000    0.00138889  13 t-inv F
  0.166667 -0.333333  0.000000    0.00138889  13 t-inv F
 -0.166667  0.333333  0.000000    0.00138889  13 t-inv F
  0.333333 -0.166667  0.000000    0.00138889  13 t-inv F
 -0.166667 -0.166667  0.000000    0.00138889  13 t-inv F
 -0.416667  0.250000  0.000000    0.00138889  14 t-inv F
  0.166667 -0.416667  0.000000    0.00138889  14 t-inv F
 -0.250000  0.416667  0.000000    0.00138889  14 t-inv F
  0.416667 -0.166667  0.000000    0.00138889  14 t-inv F
 -0.166667 -0.250000  0.000000    0.00138889  14 t-inv F
 -0.166667  0.416667  0.000000    0.00138889  14 t-inv F
 -0.250000 -0.166667  0.000000    0.00138889  14 t-inv F
  0.416667 -0.250000  0.000000    0.00138889  14 t-inv F
  0.166667  0.250000  0.000000    0.00138889  14 t-inv F
  0.250000 -0.416667  0.000000    0.00138889  14 t-inv F
 -0.416667  0.166667  0.000000    0.00138889  14 t-inv F
 -0.500000  0.333333  0.000000    0.00138889  15 t-inv F
  0.166667 -0.500000  0.000000    0.00138889  15 t-inv F
 -0.333333  0.500000  0.000000    0.00138889  15 t-inv F
  0.500000 -0.166667  0.000000    0.00138889  15 t-inv F
 -0.166667 -0.333333  0.000000    0.00138889  15 t-inv F
 -0.166667  0.500000  0.000000    0.00138889  15 t-inv F
 -0.333333 -0.166667  0.000000    0.00138889  15 t-inv F
  0.500000 -0.333333  0.000000    0.00138889  15 t-inv F
  0.166667  0.333333  0.000000    0.00138889  15 t-inv F
  0.333333 -0.500000  0.000000    0.00138889  15 t-inv F
 -0.500000  0.166667  0.000000    0.00138889  15 t-inv F
 -0.583333  0.416667  0.000000    0.00138889  16 t-inv F
  0.166667 -0.583333  0.000000    0.00138889  16 t-inv F
 -0.416667  0.583333  0.000000    0.00138889  16 t-inv F
  0.583333 -0.166667  0.000000    0.00138889  16 t-inv F
 -0.166667 -0.416667  0.000000    0.00138889  16 t-inv F
 -0.500000  0.250000  0.000000    0.00138889  17 t-inv F
  0.250000 -0.500000  0.000000    0.00138889  17 t-inv F
 -0.250000  0.500000  0.000000    0.00138889  17 t-inv F
  0.500000 -0.250000  0.000000    0.00138889  17 t-inv F
 -0.250000 -0.250000  0.000000    0.00138889  17 t-inv F
 -0.583333  0.333333  0.000000    0.00138889  18 t-inv F
  0.250000 -0.583333  0.000000    0.00138889  18 t-inv F
 -0.333333  0.583333  0.000000    0.00138889  18 t-inv F
  0.583333 -0.250000  0.000000    0.00138889  18 t-inv F
 -0.250000 -0.333333  0.000000    0.00138889  18 t-inv F
 -0.250000  0.583333  0.000000    0.00138889  18 t-inv F
 -0.333333 -0.250000  0.000000    0.00138889  18 t-inv F
  0.583333 -0.333333  0.000000    0.00138889  18 t-inv F
  0.250000  0.333333  0.000000    0.00138889  18 t-inv F
  0.333333 -0.583333  0.000000    0.00138889  18 t-inv F
 -0.583333  0.250000  0.000000    0.00138889  18 t-inv F
 -0.333333  0.666667  0.000000    0.00138889  19 t-inv F
 -0.083333  0.083333  0.200000    0.00138889  21 t-inv F
  0.000000 -0.083333  0.200000    0.00138889  21 t-inv F
  0.000000  0.083333  0.200000    0.00138889  21 t-inv F
 -0.083333  0.000000  0.200000    0.00138889  21 t-inv F
  0.083333 -0.083333  0.200000    0.00138889  21 t-inv F
 -0.166667  0.166667  0.200000    0.00138889  22 t-inv F
  0.000000 -0.166667  0.200000    0.00138889  22 t-inv F
  0.000000  0.166667  0.200000    0.00138889  22 t-inv F
 -0.166667  0.000000  0.200000    0.00138889  22 t-inv F
  0.166667 -0.166667  0.200000    0.00138889  22 t-inv F
 -0.250000  0.250000  0.200000    0.00138889  23 t-inv F
  0.000000 -0.250000  0.200000    0.00138889  23 t-inv F
  0.000000  0.250000  0.200000    0.00138889  23 t-inv F
 -0.250000  0.000000  0.200000    0.00138889  23 t-inv F
  0.250000 -0.250000  0.200000    0.00138889  23 t-inv F
 -0.333333  0.333333  0.200000    0.00138889  24 t-inv F
  0.000000 -0.333333  0.200000    0.00138889  24 t-inv F
  0.000000  0.333333  0.200000    0.00138889  24 t-inv F
 -0.333333  0.000000  0.200000    0.00138889  24 t-inv F
  0.333333 -0.333333  0.200000    0.00138889  24 t-inv F
 -0.416667  0.416667  0.200000    0.00138889  25 t-inv F
  0.000000 -0.416667  0.200000    0.00138889  25 t-inv F
  0.000000  0.416667  0.200000    0.00138889  25 t-inv F
 -0.416667  0.000000  0.200000    0.00138889  25 t-inv F
  0.416667 -0.416667  0.200000    0.00138889  25 t-inv F
 -0.500000  0.500000  0.200000    0.00138889  26 t-inv F
  0.000000 -0.500000  0.200000    0.00138889  26 t-inv F
 -0.166667  0.083333  0.200000    0.00138889  27 t-inv F
  0.083333 -0.166667  0.200000    0.00138889  27 t-inv F
 -0.083333  0.166667  0.200000    0.00138889  27 t-inv F
  0.166667 -0.083333  0.200000    0.00138889  27 t-inv F
 -0.083333 -0.083333  0.200000    0.00138889  27 t-inv F
 -0.250000  0.166667  0.200000    0.00138889  28 t-inv F
  0.083333 -0.250000  0.200000    0.00138889  28 t-inv F
 -0.166667  0.250000  0.200000    0.00138889  28 t-inv F
  0.250000 -0.083333  0.200000    0.00138889  28 t-inv F
 -0.083333 -0.166667  0.200000    0.00138889  28 t-inv F
 -0.083333  0.250000  0.200000    0.00138889  28 t-inv F
 -0.166667 -0.083333  0.200000    0.00138889  28 t-inv F
  0.250000 -0.166667  0.200000    0.00138889  28 t-inv F
  0.083333  0.166667  0.200000    0.00138889  28 t-inv F
  0.166667 -0.250000  0.200000    0.00138889  28 t-inv F
 -0.250000  0.083333  0.200000    0.00138889  28 t-inv F
 -0.333333  0.250000  0.200000    0.00138889  29 t-inv F
  0.083333 -0.333333  0.200000    0.00138889  29 t-inv F
 -0.250000  0.333333  0.200000    0.00138889  29 t-inv F
  0.333333 -0.083333  0.200000    0.00138889  29 t-inv F
 -0.083333 -0.250000  0.200000    0.00138889  29 t-inv F
 -0.083333  0.333333  0.200000    0.00138889  29 t-inv F
 -0.250000 -0.083333  0.200000    0.00138889  29 t-inv F
  0.333333 -0.250000  0.200000    0.00138889  29 t-inv F
  0.083333  0.250000  0.200000    0.00138889  29 t-inv F
  0.250000 -0.333333  0.200000    0.00138889  29 t-inv F
 -0.333333  0.083333  0.200000    0.00138889  29 t-inv F
 -0.416667  0.333333  0.200000    0.00138889  30 t-inv F
  0.083333 -0.416667  0.200000    0.00138889  30 t-inv F
 -0.333333  0.416667  0.200000    0.00138889  30 t-inv F
  0.416667 -0.083333  0.200000    0.00138889  30 t-inv F
 -0.083333 -0.333333  0.200000    0.00138889  30 t-inv F
 -0.083333  0.416667  0.200000    0.00138889  30 t-inv F
 -0.333333 -0.083333  0.200000    0.00138889  30 t-inv F
  0.416667 -0.333333  0.200000    0.00138889  30 t-inv F
  0.083333  0.333333  0.200000    0.00138889  30 t-inv F
  0.333333 -0.416667  0.200000    0.00138889  30 t-inv F
 -0.416667  0.083333  0.200000    0.00138889  30 t-inv F
 -0.500000  0.416667  0.200000    0.00138889  31 t-inv F
  0.083333 -0.500000  0.200000    0.00138889  31 t-inv F
 -0.416667  0.500000  0.200000    0.00138889  31 t-inv F
  0.500000 -0.083333  0.200000    0.00138889  31 t-inv F
 -0.083333 -0.416667  0.200000    0.00138889  31 t-inv F
 -0.083333  0.500000  0.200000    0.00138889  31 t-inv F
 -0.416667 -0.083333  0.200000    0.00138889  31 t-inv F
  0.500000 -0.416667  0.200000    0.00138889  31 t-inv F
  0.083333  0.416667  0.200000    0.00138889  31 t-inv F
  0.416667 -0.500000  0.200000    0.00138889  31 t-inv F
 -0.500000  0.083333  0.200000    0.00138889  31 t-inv F
 -0.333333  0.166667  0.200000    0.00138889  32 t-inv F
  0.166667 -0.333333  0.200000    0.00138889  32 t-inv F
 -0.166667  0.333333  0.200000    0.00138889  32 t-inv F
  0.333333 -0.166667  0.200000    0.00138889  32 t-inv F
 -0.166667 -0.166667  0.200000    0.00138889  32 t-inv F
 -0.416667  0.250000  0.200000    0.00138889  33 t-inv F
  0.166667 -0.416667  0.200000    0.00138889  33 t-inv F
 -0.250000  0.416667  0.200000    0.00138889  33 t-inv F
  0.416667 -0.166667  0.200000    0.00138889  33 t-inv F
 -0.166667 -0.250000  0.200000    0.00138889  33 t-inv F
 -0.166667  0.416667  0.200000    0.00138889  33 t-inv F
 -0.250000 -0.166667  0.200000    0.00138889  33 t-inv F
  0.416667 -0.250000  0.200000    0.00138889  33 t-inv F
  0.166667  0.250000  0.200000    0.00138889  33 t-inv F
  0.250000 -0.416667  0.200000    0.00138889  33 t-inv F
 -0.416667  0.166667  0.200000    0.00138889  33 t-inv F
 -0.500000  0.333333  0.200000    0.00138889  34 t-inv F
  0.166667 -0.500000  0.200000    0.00138889  34 t-inv F
 -0.333333  0.500000  0.200000    0.00138889  34 t-inv F
  0.500000 -0.166667  0.200000    0.00138889  34 t-inv F
 -0.166667 -0.333333  0.200000    0.00138889  34 t-inv F
 -0.166667  0.500000  0.200000    0.00138889  34 t-inv F
 -0.333333 -0.166667  0.200000    0.00138889  34 t-inv F
  0.500000 -0.333333  0.200000    0.00138889  34 t-inv F
  0.166667  0.333333  0.200000    0.00138889  34 t-inv F
  0.333333 -0.500000  0.200000    0.00138889  34 t-inv F
 -0.500000  0.166667  0.200000    0.00138889  34 t-inv F
 -0.583333  0.416667  0.200000    0.00138889  35 t-inv F
  0.166667 -0.583333  0.200000    0.00138889  35 t-inv F
 -0.416667  0.583333  0.200000    0.00138889  35 t-inv F
  0.583333 -0.166667  0.200000    0.00138889  35 t-inv F
 -0.166667 -0.416667  0.200000    0.00138889  35 t-inv F
 -0.500000  0.250000  0.200000    0.00138889  36 t-inv F
  0.250000 -0.500000  0.200000    0.00138889  36 t-inv F
 -0.250000  0.500000  0.200000    0.00138889  36 t-inv F
  0.500000 -0.250000  0.200000    0.00138889  36 t-inv F
 -0.250000 -0.250000  0.200000    0.00138889  36 t-inv F
 -0.583333  0.333333  0.200000    0.00138889  37 t-inv F
  0.250000 -0.583333  0.200000    0.00138889  37 t-inv F
 -0.333333  0.583333  0.200000    0.00138889  37 t-inv F
  0.583333 -0.250000  0.200000    0.00138889  37 t-inv F
 -0.250000 -0.333333  0.200000    0.00138889  37 t-inv F
 -0.250000  0.583333  0.200000    0.00138889  37 t-inv F
 -0.333333 -0.250000  0.200000    0.00138889  37 t-inv F
  0.583333 -0.333333  0.200000    0.00138889  37 t-inv F
  0.250000  0.333333  0.200000    0.00138889  37 t-inv F
  0.333333 -0.583333  0.200000    0.00138889  37 t-inv F
 -0.583333  0.250000  0.200000    0.00138889  37 t-inv F
 -0.333333  0.666667  0.200000    0.00138889  38 t-inv F
 -0.083333  0.083333  0.400000    0.00138889  40 t-inv F
  0.000000 -0.083333  0.400000    0.00138889  40 t-inv F
  0.000000  0.083333  0.400000    0.00138889  40 t-inv F
 -0.083333  0.000000  0.400000    0.00138889  40 t-inv F
  0.083333 -0.083333  0.400000    0.00138889  40 t-inv F
 -0.166667  0.166667  0.400000    0.00138889  41 t-inv F
  0.000000 -0.166667  0.400000    0.00138889  41 t-inv F
  0.000000  0.166667  0.400000    0.00138889  41 t-inv F
 -0.166667  0.000000  0.400000    0.00138889  41 t-inv F
  0.166667 -0.166667  0.400000    0.00138889  41 t-inv F
 -0.250000  0.250000  0.400000    0.00138889  42 t-inv F
  0.000000 -0.250000  0.400000    0.00138889  42 t-inv F
  0.000000  0.250000  0.400000    0.00138889  42 t-inv F
 -0.250000  0.000000  0.400000    0.00138889  42 t-inv F
  0.250000 -0.250000  0.400000    0.00138889  42 t-inv F
 -0.333333  0.333333  0.400000    0.00138889  43 t-inv F
  0.000000 -0.333333  0.400000    0.00138889  43 t-inv F
  0.000000  0.333333  0.400000    0.00138889  43 t-inv F
 -0.333333  0.000000  0.400000    0.00138889  43 t-inv F
  0.333333 -0.333333  0.400000    0.00138889  43 t-inv F
 -0.416667  0.416667  0.400000    0.00138889  44 t-inv F
  0.000000 -0.416667  0.400000    0.00138889  44 t-inv F
  0.000000  0.416667  0.400000    0.00138889  44 t-inv F
 -0.416667  0.000000  0.400000    0.00138889  44 t-inv F
  0.416667 -0.416667  0.400000    0.00138889  44 t-inv F
 -0.500000  0.500000  0.400000    0.00138889  45 t-inv F
  0.000000 -0.500000  0.400000    0.00138889  45 t-inv F
 -0.166667  0.083333  0.400000    0.00138889  46 t-inv F
  0.083333 -0.166667  0.400000    0.00138889  46 t-inv F
 -0.083333  0.166667  0.400000    0.00138889  46 t-inv F
  0.166667 -0.083333  0.400000    0.00138889  46 t-inv F
 -0.083333 -0.083333  0.400000    0.00138889  46 t-inv F
 -0.250000  0.166667  0.400000    0.00138889  47 t-inv F
  0.083333 -0.250000  0.400000    0.00138889  47 t-inv F
 -0.166667  0.250000  0.400000    0.00138889  47 t-inv F
  0.250000 -0.083333  0.400000    0.00138889  47 t-inv F
 -0.083333 -0.166667  0.400000    0.00138889  47 t-inv F
 -0.083333  0.250000  0.400000    0.00138889  47 t-inv F
 -0.166667 -0.083333  0.400000    0.00138889  47 t-inv F
  0.250000 -0.166667  0.400000    0.00138889  47 t-inv F
  0.083333  0.166667  0.400000    0.00138889  47 t-inv F
  0.166667 -0.250000  0.400000    0.00138889  47 t-inv F
 -0.250000  0.083333  0.400000    0.00138889  47 t-inv F
 -0.333333  0.250000  0.400000    0.00138889  48 t-inv F
  0.083333 -0.333333  0.400000    0.00138889  48 t-inv F
 -0.250000  0.333333  0.400000    0.00138889  48 t-inv F
  0.333333 -0.083333  0.400000    0.00138889  48 t-inv F
 -0.083333 -0.250000  0.400000    0.00138889  48 t-inv F
 -0.083333  0.333333  0.400000    0.00138889  48 t-inv F
 -0.250000 -0.083333  0.400000    0.00138889  48 t-inv F
  0.333333 -0.250000  0.400000    0.00138889  48 t-inv F
  0.083333  0.250000  0.400000    0.00138889  48 t-inv F
  0.250000 -0.333333  0.400000    0.00138889  48 t-inv F
 -0.333333  0.083333  0.400000    0.00138889  48 t-inv F
 -0.416667  0.333333  0.400000    0.00138889  49 t-inv F
  0.083333 -0.416667  0.400000    0.00138889  49 t-inv F
 -0.333333  0.416667  0.400000    0.00138889  49 t-inv F
  0.416667 -0.083333  0.400000    0.00138889  49 t-inv F
 -0.083333 -0.333333  0.400000    0.00138889  49 t-inv F
 -0.083333  0.416667  0.400000    0.00138889  49 t-inv F
 -0.333333 -0.083333  0.400000    0.00138889  49 t-inv F
  0.416667 -0.333333  0.400000    0.00138889  49 t-inv F
  0.083333  0.333333  0.400000    0.00138889  49 t-inv F
  0.333333 -0.416667  0.400000    0.00138889  49 t-inv F
 -0.416667  0.083333  0.400000    0.00138889  49 t-inv F
 -0.500000  0.416667  0.400000    0.00138889  50 t-inv F
  0.083333 -0.500000  0.400000    0.00138889  50 t-inv F
 -0.416667  0.500000  0.400000    0.00138889  50 t-inv F
  0.500000 -0.083333  0.400000    0.00138889  50 t-inv F
 -0.083333 -0.416667  0.400000    0.00138889  50 t-inv F
 -0.083333  0.500000  0.400000    0.00138889  50 t-inv F
 -0.416667 -0.083333  0.400000    0.00138889  50 t-inv F
  0.500000 -0.416667  0.400000    0.00138889  50 t-inv F
  0.083333  0.416667  0.400000    0.00138889  50 t-inv F
  0.416667 -0.500000  0.400000    0.00138889  50 t-inv F
 -0.500000  0.083333  0.400000    0.00138889  50 t-inv F
 -0.333333  0.166667  0.400000    0.00138889  51 t-inv F
  0.166667 -0.333333  0.400000    0.00138889  51 t-inv F
 -0.166667  0.333333  0.400000    0.00138889  51 t-inv F
  0.333333 -0.166667  0.400000    0.00138889  51 t-inv F
 -0.166667 -0.166667  0.400000    0.00138889  51 t-inv F
 -0.416667  0.250000  0.400000    0.00138889  52 t-inv F
  0.166667 -0.416667  0.400000    0.00138889  52 t-inv F
 -0.250000  0.416667  0.400000    0.00138889  52 t-inv F
  0.416667 -0.166667  0.400000    0.00138889  52 t-inv F
 -0.166667 -0.250000  0.400000    0.00138889  52 t-inv F
 -0.166667  0.416667  0.400000    0.00138889  52 t-inv F
 -0.250000 -0.166667  0.400000    0.00138889  52 t-inv F
  0.416667 -0.250000  0.400000    0.00138889  52 t-inv F
  0.166667  0.250000  0.400000    0.00138889  52 t-inv F
  0.250000 -0.416667  0.400000    0.00138889  52 t-inv F
 -0.416667  0.166667  0.400000    0.00138889  52 t-inv F
 -0.500000  0.333333  0.400000    0.00138889  53 t-inv F
  0.166667 -0.500000  0.400000    0.00138889  53 t-inv F
 -0.333333  0.500000  0.400000    0.00138889  53 t-inv F
  0.500000 -0.166667  0.400000    0.00138889  53 t-inv F
 -0.166667 -0.333333  0.400000    0.00138889  53 t-inv F
 -0.166667  0.500000  0.400000    0.00138889  53 t-inv F
 -0.333333 -0.166667  0.400000    0.00138889  53 t-inv F
  0.500000 -0.333333  0.400000    0.00138889  53 t-inv F
  0.166667  0.333333  0.400000    0.00138889  53 t-inv F
  0.333333 -0.500000  0.400000    0.00138889  53 t-inv F
 -0.500000  0.166667  0.400000    0.00138889  53 t-inv F
 -0.583333  0.416667  0.400000    0.00138889  54 t-inv F
  0.166667 -0.583333  0.400000    0.00138889  54 t-inv F
 -0.416667  0.583333  0.400000    0.00138889  54 t-inv F
  0.583333 -0.166667  0.400000    0.00138889  54 t-inv F
 -0.166667 -0.416667  0.400000    0.00138889  54 t-inv F
 -0.500000  0.250000  0.400000    0.00138889  55 t-inv F
  0.250000 -0.500000  0.400000    0.00138889  55 t-inv F
 -0.250000  0.500000  0.400000    0.00138889  55 t-inv F
  0.500000 -0.250000  0.400000    0.00138889  55 t-inv F
 -0.250000 -0.250000  0.400000    0.00138889  55 t-inv F
 -0.583333  0.333333  0.400000    0.00138889  56 t-inv F
  0.250000 -0.583333  0.400000    0.00138889  56 t-inv F
 -0.333333  0.583333  0.400000    0.00138889  56 t-inv F
  0.583333 -0.250000  0.400000    0.00138889  56 t-inv F
 -0.250000 -0.333333  0.400000    0.00138889  56 t-inv F
 -0.250000  0.583333  0.400000    0.00138889  56 t-inv F
 -0.333333 -0.250000  0.400000    0.00138889  56 t-inv F
  0.583333 -0.333333  0.400000    0.00138889  56 t-inv F
  0.250000  0.333333  0.400000    0.00138889  56 t-inv F
  0.333333 -0.583333  0.400000    0.00138889  56 t-inv F
 -0.583333  0.250000  0.400000    0.00138889  56 t-inv F
 -0.333333  0.666667  0.400000    0.00138889  57 t-inv F
  0.000000  0.000000 -0.200000    0.00138889  20 t-inv T
 -0.083333  0.000000 -0.200000    0.00138889  21 t-inv T
  0.083333 -0.083333 -0.200000    0.00138889  21 t-inv T
  0.000000  0.083333 -0.200000    0.00138889  21 t-inv T
  0.000000 -0.083333 -0.200000    0.00138889  21 t-inv T
  0.083333  0.000000 -0.200000    0.00138889  21 t-inv T
 -0.083333  0.083333 -0.200000    0.00138889  21 t-inv T
 -0.166667  0.000000 -0.200000    0.00138889  22 t-inv T
  0.166667 -0.166667 -0.200000    0.00138889  22 t-inv T
  0.000000  0.166667 -0.200000    0.00138889  22 t-inv T
  0.000000 -0.166667 -0.200000    0.00138889  22 t-inv T
  0.166667  0.000000 -0.200000    0.00138889  22 t-inv T
 -0.166667  0.166667 -0.200000    0.00138889  22 t-inv T
 -0.250000  0.000000 -0.200000    0.00138889  23 t-inv T
  0.250000 -0.250000 -0.200000    0.00138889  23 t-inv T
  0.000000  0.250000 -0.200000    0.00138889  23 t-inv T
  0.000000 -0.250000 -0.200000    0.00138889  23 t-inv T
  0.250000  0.000000 -0.200000    0.00138889  23 t-inv T
 -0.250000  0.250000 -0.200000    0.00138889  23 t-inv T
 -0.333333  0.000000 -0.200000    0.00138889  24 t-inv T
  0.333333 -0.333333 -0.200000    0.00138889  24 t-inv T
  0.000000  0.333333 -0.200000    0.00138889  24 t-inv T
  0.000000 -0.333333 -0.200000    0.00138889  24 t-inv T
  0.333333  0.000000 -0.200000    0.00138889  24 t-inv T
 -0.333333  0.333333 -0.200000    0.00138889  24 t-inv T
 -0.416667  0.000000 -0.200000    0.00138889  25 t-inv T
  0.416667 -0.416667 -0.200000    0.00138889  25 t-inv T
  0.000000  0.416667 -0.200000    0.00138889  25 t-inv T
  0.000000 -0.416667 -0.200000    0.00138889  25 t-inv T
  0.416667  0.000000 -0.200000    0.00138889  25 t-inv T
 -0.416667  0.416667 -0.200000    0.00138889  25 t-inv T
 -0.500000  0.000000 -0.200000    0.00138889  26 t-inv T
  0.500000 -0.500000 -0.200000    0.00138889  26 t-inv T
  0.000000  0.500000 -0.200000    0.00138889  26 t-inv T
 -0.083333 -0.083333 -0.200000    0.00138889  27 t-inv T
  0.166667 -0.083333 -0.200000    0.00138889  27 t-inv T
 -0.083333  0.166667 -0.200000    0.00138889  27 t-inv T
  0.083333 -0.166667 -0.200000    0.00138889  27 t-inv T
 -0.166667  0.083333 -0.200000    0.00138889  27 t-inv T
  0.083333  0.083333 -0.200000    0.00138889  27 t-inv T
 -0.166667 -0.083333 -0.200000    0.00138889  28 t-inv T
  0.250000 -0.166667 -0.200000    0.00138889  28 t-inv T
 -0.083333  0.250000 -0.200000    0.00138889  28 t-inv T
  0.166667 -0.250000 -0.200000    0.00138889  28 t-inv T
 -0.250000  0.083333 -0.200000    0.00138889  28 t-inv T
  0.083333  0.166667 -0.200000    0.00138889  28 t-inv T
  0.083333 -0.250000 -0.200000    0.00138889  28 t-inv T
  0.166667  0.083333 -0.200000    0.00138889  28 t-inv T
 -0.250000  0.166667 -0.200000    0.00138889  28 t-inv T
 -0.083333 -0.166667 -0.200000    0.00138889  28 t-inv T
 -0.166667  0.250000 -0.200000    0.00138889  28 t-inv T
  0.250000 -0.083333 -0.200000    0.00138889  28 t-inv T
 -0.250000 -0.083333 -0.200000    0.00138889  29 t-inv T
  0.333333 -0.250000 -0.200000    0.00138889  29 t-inv T
 -0.083333  0.333333 -0.200000    0.00138889  29 t-inv T
  0.250000 -0.333333 -0.200000    0.00138889  29 t-inv T
 -0.333333  0.083333 -0.200000    0.00138889  29 t-inv T
  0.083333  0.250000 -0.200000    0.00138889  29 t-inv T
  0.083333 -0.333333 -0.200000    0.00138889  29 t-inv T
  0.250000  0.083333 -0.200000    0.00138889  29 t-inv T
 -0.333333  0.250000 -0.200000    0.00138889  29 t-inv T
 -0.083333 -0.250000 -0.200000    0.00138889  29 t-inv T
 -0.250000  0.333333 -0.200000    0.00138889  29 t-inv T
  0.333333 -0.083333 -0.200000    0.00138889  29 t-inv T
 -0.333333 -0.083333 -0.200000    0.00138889  30 t-inv T
  0.416667 -0.333333 -0.200000    0.00138889  30 t-inv T
 -0.083333  0.416667 -0.200000    0.00138889  30 t-inv T
  0.333333 -0.416667 -0.200000    0.00138889  30 t-inv T
 -0.416667  0.083333 -0.200000    0.00138889  30 t-inv T
  0.083333  0.333333 -0.200000    0.00138889  30 t-inv T
  0.083333 -0.416667 -0.200000    0.00138889  30 t-inv T
  0.333333  0.083333 -0.200000    0.00138889  30 t-inv T
 -0.416667  0.333333 -0.200000    0.00138889  30 t-inv T
 -0.083333 -0.333333 -0.200000    0.00138889  30 t-inv T
 -0.333333  0.416667 -0.200000    0.00138889  30 t-inv T
  0.416667 -0.083333 -0.200000    0.00138889  30 t-inv T
 -0.416667 -0.083333 -0.200000    0.00138889  31 t-inv T
  0.500000 -0.416667 -0.200000    0.00138889  31 t-inv T
 -0.083333  0.500000 -0.200000    0.00138889  31 t-inv T
  0.416667 -0.500000 -0.200000    0.00138889  31 t-inv T
 -0.500000  0.083333 -0.200000    0.00138889  31 t-inv T
  0.083333  0.416667 -0.200000    0.00138889  31 t-inv T
  0.083333 -0.500000 -0.200000    0.00138889  31 t-inv T
  0.416667  0.083333 -0.200000    0.00138889  31 t-inv T
 -0.500000  0.416667 -0.200000    0.00138889  31 t-inv T
 -0.083333 -0.416667 -0.200000    0.00138889  31 t-inv T
 -0.416667  0.500000 -0.200000    0.00138889  31 t-inv T
  0.500000 -0.083333 -0.200000    0.00138889  31 t-inv T
 -0.166667 -0.166667 -0.200000    0.00138889  32 t-inv T
  0.333333 -0.166667 -0.200000    0.00138889  32 t-inv T
 -0.166667  0.333333 -0.200000    0.00138889  32 t-inv T
  0.166667 -0.333333 -0.200000    0.00138889  32 t-inv T
 -0.333333  0.166667 -0.200000    0.00138889  32 t-inv T
  0.166667  0.166667 -0.200000    0.00138889  32 t-inv T
 -0.250000 -0.166667 -0.200000    0.00138889  33 t-inv T
  0.416667 -0.250000 -0.200000    0.00138889  33 t-inv T
 -0.166667  0.416667 -0.200000    0.00138889  33 t-inv T
  0.250000 -0.416667 -0.200000    0.00138889  33 t-inv T
 -0.416667  0.166667 -0.200000    0.00138889  33 t-inv T
  0.166667  0.250000 -0.200000    0.00138889  33 t-inv T
  0.166667 -0.416667 -0.200000    0.00138889  33 t-inv T
  0.250000  0.166667 -0.200000    0.00138889  33 t-inv T
 -0.416667  0.250000 -0.200000    0.00138889  33 t-inv T
 -0.166667 -0.250000 -0.200000    0.00138889  33 t-inv T
 -0.250000  0.416667 -0.200000    0.00138889  33 t-inv T
  0.416667 -0.166667 -0.200000    0.00138889  33 t-inv T
 -0.333333 -0.166667 -0.200000    0.00138889  34 t-inv T
  0.500000 -0.333333 -0.200000    0.00138889  34 t-inv T
 -0.166667  0.500000 -0.200000    0.00138889  34 t-inv T
  0.333333 -0.500000 -0.200000    0.00138889  34 t-inv T
 -0.500000  0.166667 -0.200000    0.00138889  34 t-inv T
  0.166667  0.333333 -0.200000    0.00138889  34 t-inv T
  0.166667 -0.500000 -0.200000    0.00138889  34 t-inv T
  0.333333  0.166667 -0.200000    0.00138889  34 t-inv T
 -0.500000  0.333333 -0.200000    0.00138889  34 t-inv T
 -0.166667 -0.333333 -0.200000    0.00138889  34 t-inv T
 -0.333333  0.500000 -0.200000    0.00138889  34 t-inv T
  0.500000 -0.166667 -0.200000    0.00138889  34 t-inv T
 -0.416667 -0.166667 -0.200000    0.00138889  35 t-inv T
  0.583333 -0.416667 -0.200000    0.00138889  35 t-inv T
 -0.166667  0.583333 -0.200000    0.00138889  35 t-inv T
  0.416667 -0.583333 -0.200000    0.00138889  35 t-inv T
 -0.583333  0.166667 -0.200000    0.00138889  35 t-inv T
  0.166667  0.416667 -0.200000    0.00138889  35 t-inv T
 -0.250000 -0.250000 -0.200000    0.00138889  36 t-inv T
  0.500000 -0.250000 -0.200000    0.00138889  36 t-inv T
 -0.250000  0.500000 -0.200000    0.00138889  36 t-inv T
  0.250000 -0.500000 -0.200000    0.00138889  36 t-inv T
 -0.500000  0.250000 -0.200000    0.00138889  36 t-inv T
  0.250000  0.250000 -0.200000    0.00138889  36 t-inv T
 -0.333333 -0.250000 -0.200000    0.00138889  37 t-inv T
  0.583333 -0.333333 -0.200000    0.00138889  37 t-inv T
 -0.250000  0.583333 -0.200000    0.00138889  37 t-inv T
  0.333333 -0.583333 -0.200000    0.00138889  37 t-inv T
 -0.583333  0.250000 -0.200000    0.00138889  37 t-inv T
  0.250000  0.333333 -0.200000    0.00138889  37 t-inv T
  0.250000 -0.583333 -0.200000    0.00138889  37 t-inv T
  0.333333  0.250000 -0.200000    0.00138889  37 t-inv T
 -0.583333  0.333333 -0.200000    0.00138889  37 t-inv T
 -0.250000 -0.333333 -0.200000    0.00138889  37 t-inv T
 -0.333333  0.583333 -0.200000    0.00138889  37 t-inv T
  0.583333 -0.250000 -0.200000    0.00138889  37 t-inv T
 -0.333333 -0.333333 -0.200000    0.00138889  38 t-inv T
  0.333333 -0.666667 -0.200000    0.00138889  38 t-inv T
  0.000000  0.000000 -0.400000    0.00138889  39 t-inv T
 -0.083333  0.000000 -0.400000    0.00138889  40 t-inv T
  0.083333 -0.083333 -0.400000    0.00138889  40 t-inv T
  0.000000  0.083333 -0.400000    0.00138889  40 t-inv T
  0.000000 -0.083333 -0.400000    0.00138889  40 t-inv T
  0.083333  0.000000 -0.400000    0.00138889  40 t-inv T
 -0.083333  0.083333 -0.400000    0.00138889  40 t-inv T
 -0.166667  0.000000 -0.400000    0.00138889  41 t-inv T
  0.166667 -0.166667 -0.400000    0.00138889  41 t-inv T
  0.000000  0.166667 -0.400000    0.00138889  41 t-inv T
  0.000000 -0.166667 -0.400000    0.00138889  41 t-inv T
  0.166667  0.000000 -0.400000    0.00138889  41 t-inv T
 -0.166667  0.166667 -0.400000    0.00138889  41 t-inv T
 -0.250000  0.000000 -0.400000    0.00138889  42 t-inv T
  0.250000 -0.250000 -0.400000    0.00138889  42 t-inv T
  0.000000  0.250000 -0.400000    0.00138889  42 t-inv T
  0.000000 -0.250000 -0.400000    0.00138889  42 t-inv T
  0.250000  0.000000 -0.400000    0.00138889  42 t-inv T
 -0.250000  0.250000 -0.400000    0.00138889  42 t-inv T
 -0.333333  0.000000 -0.400000    0.00138889  43 t-inv T
  0.333333 -0.333333 -0.400000    0.00138889  43 t-inv T
  0.000000  0.333333 -0.400000    0.00138889  43 t-inv T
  0.000000 -0.333333 -0.400000    0.00138889  43 t-inv T
  0.333333  0.000000 -0.400000    0.00138889  43 t-inv T
 -0.333333  0.333333 -0.400000    0.00138889  43 t-inv T
 -0.416667  0.000000 -0.400000    0.00138889  44 t-inv T
  0.416667 -0.416667 -0.400000    0.00138889  44 t-inv T
  0.000000  0.416667 -0.400000    0.00138889  44 t-inv T
  0.000000 -0.416667 -0.400000    0.00138889  44 t-inv T
  0.416667  0.000000 -0.400000    0.00138889  44 t-inv T
 -0.416667  0.416667 -0.400000    0.00138889  44 t-inv T
 -0.500000  0.000000 -0.400000    0.00138889  45 t-inv T
  0.500000 -0.500000 -0.400000    0.00138889  45 t-inv T
  0.000000  0.500000 -0.400000    0.00138889  45 t-inv T
 -0.083333 -0.083333 -0.400000    0.00138889  46 t-inv T
  0.166667 -0.083333 -0.400000    0.00138889  46 t-inv T
 -0.083333  0.166667 -0.400000    0.00138889  46 t-inv T
  0.083333 -0.166667 -0.400000    0.00138889  46 t-inv T
 -0.166667  0.083333 -0.400000    0.00138889  46 t-inv T
  0.083333  0.083333 -0.400000    0.00138889  46 t-inv T
 -0.166667 -0.083333 -0.400000    0.00138889  47 t-inv T
  0.250000 -0.166667 -0.400000    0.00138889  47 t-inv T
 -0.083333  0.250000 -0.400000    0.00138889  47 t-inv T
  0.166667 -0.250000 -0.400000    0.00138889  47 t-inv T
 -0.250000  0.083333 -0.400000    0.00138889  47 t-inv T
  0.083333  0.166667 -0.400000    0.00138889  47 t-inv T
  0.083333 -0.250000 -0.400000    0.00138889  47 t-inv T
  0.166667  0.083333 -0.400000    0.00138889  47 t-inv T
 -0.250000  0.166667 -0.400000    0.00138889  47 t-inv T
 -0.083333 -0.166667 -0.400000    0.00138889  47 t-inv T
 -0.166667  0.250000 -0.400000    0.00138889  47 t-inv T
  0.250000 -0.083333 -0.400000    0.00138889  47 t-inv T
 -0.250000 -0.083333 -0.400000    0.00138889  48 t-inv T
  0.333333 -0.250000 -0.400000    0.00138889  48 t-inv T
 -0.083333  0.333333 -0.400000    0.00138889  48 t-inv T
  0.250000 -0.333333 -0.400000    0.00138889  48 t-inv T
 -0.333333  0.083333 -0.400000    0.00138889  48 t-inv T
  0.083333  0.250000 -0.400000    0.00138889  48 t-inv T
  0.083333 -0.333333 -0.400000    0.00138889  48 t-inv T
  0.250000  0.083333 -0.400000    0.00138889  48 t-inv T
 -0.333333  0.250000 -0.400000    0.00138889  48 t-inv T
 -0.083333 -0.250000 -0.400000    0.00138889  48 t-inv T
 -0.250000  0.333333 -0.400000    0.00138889  48 t-inv T
  0.333333 -0.083333 -0.400000    0.00138889  48 t-inv T
 -0.333333 -0.083333 -0.400000    0.00138889  49 t-inv T
  0.416667 -0.333333 -0.400000    0.00138889  49 t-inv T
 -0.083333  0.416667 -0.400000    0.00138889  49 t-inv T
  0.333333 -0.416667 -0.400000    0.00138889  49 t-inv T
 -0.416667  0.083333 -0.400000    0.00138889  49 t-inv T
  0.083333  0.333333 -0.400000    0.00138889  49 t-inv T
  0.083333 -0.416667 -0.400000    0.00138889  49 t-inv T
  0.333333  0.083333 -0.400000    0.00138889  49 t-inv T
 -0.416667  0.333333 -0.400000    0.00138889  49 t-inv T
 -0.083333 -0.333333 -0.400000    0.00138889  49 t-inv T
 -0.333333  0.416667 -0.400000    0.00138889  49 t-inv T
  0.416667 -0.083333 -0.400000    0.00138889  49 t-inv T
 -0.416667 -0.083333 -0.400000    0.00138889  50 t-inv T
  0.500000 -0.416667 -0.400000    0.00138889  50 t-inv T
 -0.083333  0.500000 -0.400000    0.00138889  50 t-inv T
  0.416667 -0.500000 -0.400000    0.00138889  50 t-inv T
 -0.500000  0.083333 -0.400000    0.00138889  50 t-inv T
  0.083333  0.416667 -0.400000    0.00138889  50 t-inv T
  0.083333 -0.500000 -0.400000    0.00138889  50 t-inv T
  0.416667  0.083333 -0.400000    0.00138889  50 t-inv T
 -0.500000  0.416667 -0.400000    0.00138889  50 t-inv T
 -0.083333 -0.416667 -0.400000    0.00138889  50 t-inv T
 -0.416667  0.500000 -0.400000    0.00138889  50 t-inv T
  0.500000 -0.083333 -0.400000    0.00138889  50 t-inv T
 -0.166667 -0.166667 -0.400000    0.00138889  51 t-inv T
  0.333333 -0.166667 -0.400000    0.00138889  51 t-inv T
 -0.166667  0.333333 -0.400000    0.00138889  51 t-inv T
  0.166667 -0.333333 -0.400000    0.00138889  51 t-inv T
 -0.333333  0.166667 -0.400000    0.00138889  51 t-inv T
  0.166667  0.166667 -0.400000    0.00138889  51 t-inv T
 -0.250000 -0.166667 -0.400000    0.00138889  52 t-inv T
  0.416667 -0.250000 -0.400000    0.00138889  52 t-inv T
 -0.166667  0.416667 -0.400000    0.00138889  52 t-inv T
  0.250000 -0.416667 -0.400000    0.00138889  52 t-inv T
 -0.416667  0.166667 -0.400000    0.00138889  52 t-inv T
  0.166667  0.250000 -0.400000    0.00138889  52 t-inv T
  0.166667 -0.416667 -0.400000    0.00138889  52 t-inv T
  0.250000  0.166667 -0.400000    0.00138889  52 t-inv T
 -0.416667  0.250000 -0.400000    0.00138889  52 t-inv T
 -0.166667 -0.250000 -0.400000    0.00138889  52 t-inv T
 -0.250000  0.416667 -0.400000    0.00138889  52 t-inv T
  0.416667 -0.166667 -0.400000    0.00138889  52 t-inv T
 -0.333333 -0.166667 -0.400000    0.00138889  53 t-inv T
  0.500000 -0.333333 -0.400000    0.00138889  53 t-inv T
 -0.166667  0.500000 -0.400000    0.00138889  53 t-inv T
  0.333333 -0.500000 -0.400000    0.00138889  53 t-inv T
 -0.500000  0.166667 -0.400000    0.00138889  53 t-inv T
  0.166667  0.333333 -0.400000    0.00138889  53 t-inv T
  0.166667 -0.500000 -0.400000    0.00138889  53 t-inv T
  0.333333  0.166667 -0.400000    0.00138889  53 t-inv T
 -0.500000  0.333333 -0.400000    0.00138889  53 t-inv T
 -0.166667 -0.333333 -0.400000    0.00138889  53 t-inv T
 -0.333333  0.500000 -0.400000    0.00138889  53 t-inv T
  0.500000 -0.166667 -0.400000    0.00138889  53 t-inv T
 -0.416667 -0.166667 -0.400000    0.00138889  54 t-inv T
  0.583333 -0.416667 -0.400000    0.00138889  54 t-inv T
 -0.166667  0.583333 -0.400000    0.00138889  54 t-inv T
  0.416667 -0.583333 -0.400000    0.00138889  54 t-inv T
 -0.583333  0.166667 -0.400000    0.00138889  54 t-inv T
  0.166667  0.416667 -0.400000    0.00138889  54 t-inv T
 -0.250000 -0.250000 -0.400000    0.00138889  55 t-inv T
  0.500000 -0.250000 -0.400000    0.00138889  55 t-inv T
 -0.250000  0.500000 -0.400000    0.00138889  55 t-inv T
  0.250000 -0.500000 -0.400000    0.00138889  55 t-inv T
 -0.500000  0.250000 -0.400000    0.00138889  55 t-inv T
  0.250000  0.250000 -0.400000    0.00138889  55 t-inv T
 -0.333333 -0.250000 -0.400000    0.00138889  56 t-inv T
  0.583333 -0.333333 -0.400000    0.00138889  56 t-inv T
 -0.250000  0.583333 -0.400000    0.00138889  56 t-inv T
  0.333333 -0.583333 -0.400000    0.00138889  56 t-inv T
 -0.583333  0.250000 -0.400000    0.00138889  56 t-inv T
  0.250000  0.333333 -0.400000    0.00138889  56 t-inv T
  0.250000 -0.583333 -0.400000    0.00138889  56 t-inv T
  0.333333  0.250000 -0.400000    0.00138889  56 t-inv T
 -0.583333  0.333333 -0.400000    0.00138889  56 t-inv T
 -0.250000 -0.333333 -0.400000    0.00138889  56 t-inv T
 -0.333333  0.583333 -0.400000    0.00138889  56 t-inv T
  0.583333 -0.250000 -0.400000    0.00138889  56 t-inv T
 -0.333333 -0.333333 -0.400000    0.00138889  57 t-inv T
  0.333333 -0.666667 -0.400000    0.00138889  57 t-inv T


--------------------------------------------------------------------------------------------------------




 Dimension of arrays:
   k-points           NKPTS =    257   k-points in BZ     NKDIM =    920   number of bands    NBANDS=     24
   number of dos      NEDOS =    301   number of ions     NIONS =      6
   non local maximal  LDIM  =      6   non local SUM 2l+1 LMDIM =     18
   total plane-waves  NPLWV =  20736
   max r-space proj   IRMAX =      1   max aug-charges    IRDMAX= 170775
   dimension x,y,z NGX =    24 NGY =   24 NGZ =   36
   dimension x,y,z NGXF=    48 NGYF=   48 NGZF=   72
   support grid    NGXF=    96 NGYF=   96 NGZF=  144
   ions per type =               2   4
   NGX,Y,Z   is equivalent  to a cutoff of  12.57, 12.57, 12.28 a.u.
   NGXF,Y,Z  is equivalent  to a cutoff of  25.14, 25.14, 24.55 a.u.

 SYSTEM =  matgen                                  
 POSCAR =  Mo2 H4                                  

 Startparameter for this run:
   NWRITE =      2    write-flag & timer
   PREC   = accura    normal or accurate (medium, high low for compatibility)
   ISTART =      1    job   : 0-new  1-cont  2-samecut
   ICHARG =     11    charge: 1-file 2-atom 10-const
   ISPIN  =      2    spin polarized calculation?
   LNONCOLLINEAR =      F non collinear calculations
   LSORBIT =      F    spin-orbit coupling
   INIWAV =      1    electr: 0-lowe 1-rand  2-diag
   LASPH  =      F    aspherical Exc in radial PAW
   METAGGA=      F    non-selfconsistent MetaGGA calc.

 Electronic Relaxation 1
   ENCUT  =  520.0 eV  38.22 Ry    6.18 a.u.   5.90  5.90  9.06*2*pi/ulx,y,z
   ENINI  =  520.0     initial cutoff
   ENAUG  =  446.0 eV  augmentation charge cutoff
   NELM   =    140;   NELMIN=  6; NELMDL=  0     # of ELM steps 
   EDIFF  = 0.1E-03   stopping-criterion for ELM
   LREAL  =      F    real-space projection
   NLSPLINE    = F    spline interpolate recip. space projectors
   LCOMPAT=      F    compatible to vasp.4.4
   GGA_COMPAT  = T    GGA compatible to vasp.4.4-vasp.4.6
   LMAXPAW     = -100 max onsite density
   LMAXMIX     =    4 max onsite mixed and CHGCAR
   VOSKOWN=      0    Vosko Wilk Nusair interpolation
   ROPT   =    0.00000   0.00000
 Ionic relaxation
   EDIFFG = -.1E-01   stopping-criterion for IOM
   NSW    =      0    number of steps for IOM
   NBLOCK =      1;   KBLOCK =      1    inner block; outer block 
   IBRION =     -1    ionic relax: 0-MD 1-quasi-New 2-CG
   NFREE  =      0    steps in history (QN), initial steepest desc. (CG)
   ISIF   =      0    stress and relaxation
   IWAVPR =     10    prediction:  0-non 1-charg 2-wave 3-comb
   ISYM   =      3    0-nonsym 1-usesym 2-fastsym
   LCORR  =      T    Harris-Foulkes like correction to forces

   POTIM  = 0.0500    time-step for ionic-motion
   TEIN   =    0.0    initial temperature
   TEBEG  =    0.0;   TEEND  =   0.0 temperature during run
   SMASS  =  -3.00    Nose mass-parameter (am)
   estimated Nose-frequenzy (Omega)   =  0.10E-29 period in steps =****** mass=  -0.230E-27a.u.
   SCALEE = 1.0000    scale energy and forces
   NPACO  =    256;   APACO  = 16.0  distance and # of slots for P.C.
   PSTRESS=    0.0 pullay stress

  Mass of Ions in am
   POMASS =  95.94  1.00
  Ionic Valenz
   ZVAL   =  14.00  1.00
  Atomic Wigner-Seitz radii
   RWIGS  =  -1.00 -1.00
  virtual crystal weights 
   VCA    =   1.00  1.00
   NELECT =      32.0000    total number of electrons
   NUPDOWN=      -1.0000    fix difference up-down

 DOS related values:
   EMIN   =  10.00;   EMAX   =-10.00  energy-range for DOS
   EFERMI =   0.00
   ISMEAR =     0;   SIGMA  =   0.05  broadening in eV -4-tet -1-fermi 0-gaus

 Electronic relaxation 2 (details)
   IALGO  =     53    algorithm
   LDIAG  =      T    sub-space diagonalisation (order eigenvalues)
   LSUBROT=      F    optimize rotation matrix (better conditioning)
   TURBO    =      0    0=normal 1=particle mesh
   IRESTART =      0    0=no restart 2=restart with 2 vectors
   NREBOOT  =      0    no. of reboots
   NMIN     =      0    reboot dimension
   EREF     =   0.00    reference energy to select bands
   IMIX   =      4    mixing-type and parameters
     AMIX     =   0.10;   BMIX     =  1.20
     AMIX_MAG =   0.40;   BMIX_MAG =  1.20
     AMIN     =   0.10
     WC   =   100.;   INIMIX=   1;  MIXPRE=   1;  MAXMIX= -45

 Intra band minimization:
   WEIMIN = 0.0000     energy-eigenvalue tresh-hold
   EBREAK =  0.10E-05  absolut break condition
   DEPER  =   0.30     relativ break condition  

   TIME   =   0.40     timestep for ELM

  volume/ion in A,a.u.               =       7.09        47.83
  Fermi-wavevector in a.u.,A,eV,Ry     =   1.489055  2.813906 30.167992  2.217285
  Thomas-Fermi vector in A             =   2.602012
 
 Write flags
   LWAVE        =      F    write WAVECAR
   LDOWNSAMPLE  =      F    k-point downsampling of WAVECAR
   LCHARG       =      T    write CHGCAR
   LVTOT        =      F    write LOCPOT, total local potential
   LVHAR        =      F    write LOCPOT, Hartree potential only
   LELF         =      F    write electronic localiz. function (ELF)
   LORBIT       =     11    0 simple, 1 ext, 2 COOP (PROOUT), +10 PAW based schemes


 Dipole corrections
   LMONO  =      F    monopole corrections only (constant potential shift)
   LDIPOL =      F    correct potential (dipole corrections)
   IDIPOL =      0    1-x, 2-y, 3-z, 4-all directions 
   EPSILON=  1.0000000 bulk dielectric constant

 LDA+U is selected, type is set to LDAUTYPE =  2
   angular momentum for each species LDAUL =     2   -1
   U (eV)           for each species LDAUU =   2.4  0.0
   J (eV)           for each species LDAUJ =   0.0  0.0
 Exchange correlation treatment:
   GGA     =    --    GGA type
   LEXCH   =     8    internal setting for exchange type
   VOSKOWN=      0    Vosko Wilk Nusair interpolation
   EXXOEP  =     0    0=HF, 1=EXX-LHF (local Hartree Fock) 2=EXX OEP
   LHFCALC =     T    Hartree Fock is set to
   LSYMGRAD=     F    symmetrize gradient (conserves proper symmetry)
   PRECFOCK=normal    Normal, Fast or Accurate (Low or Medium for compatibility)
   LRHFCALC=     F    long range Hartree Fock
   LRSCOR  =     F    long range correlation only (use DFT for short range part)
   LTHOMAS =     F    Thomas Fermi screening in HF
   LMODELHF=     F    short range full HF, long range fraction AEXX
   ENCUT4O =  -1.0   cutoff for four orbital integrals eV
   LMAXFOCK=     4    L truncation for augmentation on plane wave grid
   LMAXFOCKAE=  -1    L truncation for all-electron charge restoration on plane wave grid
   NMAXFOCKAE=   1    number of basis functions for all-electron charge restoration
   LFOCKAEDFT=     F  apply the AE augmentation even for DFT
   NKREDX  =     1    reduce k-point grid by
   NKREDY  =     1    reduce k-point grid by
   NKREDZ  =     1    reduce k-point grid by
   SHIFTRED=     F    shift reduced grid of Gamma
   HFKIDENT=     F    idential grid for each k-point
   ODDONLY =     F    use only odd q-grid points
   EVENONLY=     F    use only even q-grid points
   HFALPHA =   -1.0000 decay constant for conv. correction
   MCALPHA =    0.0000 extent of test-charge in conv. correction in multipole expansion
   AEXX    =    0.2500 exact exchange contribution
   HFSCREEN=    0.2000 screening length (either q_TF or 0.3 A-1)
   HFSCREENC=   0.2000 screening length for correlation (either q_TF or 0.3 A-1)
   HFRCUT  =    0.0000 spherical cutoff for potential kernel
   ALDAX   =    0.7500 LDA exchange part
   AGGAX   =    0.7500 GGA exchange part
   ALDAC   =    1.0000 LDA correlation
   AGGAC   =    1.0000 GGA correlation
   ENCUTFOCK=  -1.0 apply spherical cutoff to Coloumb kernel
   NBANDSGWLOW=     1    first orbital included in HF term
   NBLOCK_FOCK=    64    blocking factor in FOCK_ACC
 Linear response parameters
   LEPSILON=     F    determine dielectric tensor
   LRPA    =     F    only Hartree local field effects (RPA)
   LNABLA  =     F    use nabla operator in PAW spheres
   LVEL    =     F    velocity operator in full k-point grid
   LINTERFAST=   F  fast interpolation
   KINTER  =     0    interpolate to denser k-point grid
   CSHIFT  =0.1000    complex shift for real part using Kramers Kronig
   OMEGAMAX=  -1.0    maximum frequency
   DEG_THRESHOLD= 0.2000000E-02 threshold for treating states as degnerate
   RTIME   =   -0.100 relaxation time in fs
  (WPLASMAI=    0.000 imaginary part of plasma frequency in eV, 0.658/RTIME)
   DFIELD  = 0.0000000 0.0000000 0.0000000 field for delta impulse in time
 
 Orbital magnetization related:
   ORBITALMAG=     F  switch on orbital magnetization
   LCHIMAG   =     F  perturbation theory with respect to B field
   DQ        =  0.001000  dq finite difference perturbation B field
   LLRAUG    =     F  two centre corrections for induced B field



--------------------------------------------------------------------------------------------------------


 Static calculation
 charge density and potential remain constant during run
 spin polarized calculation
 Conjugate gradient for all bands (Freysoldt, et al. PRB 79, 241103 (2009))
 perform sub-space diagonalisation
    before iterative eigenvector-optimisation
 no mixing
 using additional bands            8
 reciprocal scheme for non local part
 use partial core corrections
 calculate Harris-corrections to forces 
   (improved forces if not selfconsistent)
 use gradient corrections 
 WARNING: stress and forces are not correct
  (second derivative of E(xc) not defined)
 use of overlap-Matrix (Vanderbilt PP)
 Gauss-broadening in eV      SIGMA  =   0.05


--------------------------------------------------------------------------------------------------------


  energy-cutoff  :      520.00
  volume of cell :       42.52
      direct lattice vectors                 reciprocal lattice vectors
     1.586844931 -2.748496056  0.000000000     0.315090649 -0.181917671  0.000000000
     1.586844931  2.748496056  0.000000000     0.315090649  0.181917671  0.000000000
     0.000000000  0.000000000  4.875089840     0.000000000  0.000000000  0.205124425

  length of vectors
     3.173689872  3.173689872  4.875089840     0.363835342  0.363835342  0.205124425


 
 old parameters found on file WAVECAR:
  energy-cutoff  :      520.00
  volume of cell :       42.52
      direct lattice vectors                 reciprocal lattice vectors
     1.586844931 -2.748496056  0.000000000     0.315090649 -0.181917671  0.000000000
     1.586844931  2.748496056  0.000000000     0.315090649  0.181917671  0.000000000
     0.000000000  0.000000000  4.875089840     0.000000000  0.000000000  0.205124425

  length of vectors

 
 k-points in units of 2pi/SCALE and weight: 0.040  12  12   5   57  0.040  200    9 
   0.00000000  0.00000000  0.00000000       0.001
   0.02625755 -0.01515981  0.00000000       0.008
   0.05251511 -0.03031961  0.00000000       0.008
   0.07877266 -0.04547942  0.00000000       0.008
   0.10503022 -0.06063922  0.00000000       0.008
   0.13128777 -0.07579903  0.00000000       0.008
   0.15754532 -0.09095884  0.00000000       0.004
   0.05251511  0.00000000  0.00000000       0.008
   0.07877266 -0.01515981  0.00000000       0.017
   0.10503022 -0.03031961  0.00000000       0.017
   0.13128777 -0.04547942  0.00000000       0.017
   0.15754532 -0.06063922  0.00000000       0.017
   0.10503022  0.00000000  0.00000000       0.008
   0.13128777 -0.01515981  0.00000000       0.017
   0.15754532 -0.03031961  0.00000000       0.017
   0.18380288 -0.04547942  0.00000000       0.008
   0.15754532  0.00000000  0.00000000       0.008
   0.18380288 -0.01515981  0.00000000       0.017
   0.21006043  0.00000000  0.00000000       0.003
   0.00000000  0.00000000  0.04102488       0.003
   0.02625755 -0.01515981  0.04102488       0.017
   0.05251511 -0.03031961  0.04102488       0.017
   0.07877266 -0.04547942  0.04102488       0.017
   0.10503022 -0.06063922  0.04102488       0.017
   0.13128777 -0.07579903  0.04102488       0.017
   0.15754532 -0.09095884  0.04102488       0.008
   0.05251511  0.00000000  0.04102488       0.017
   0.07877266 -0.01515981  0.04102488       0.033
   0.10503022 -0.03031961  0.04102488       0.033
   0.13128777 -0.04547942  0.04102488       0.033
   0.15754532 -0.06063922  0.04102488       0.033
   0.10503022  0.00000000  0.04102488       0.017
   0.13128777 -0.01515981  0.04102488       0.033
   0.15754532 -0.03031961  0.04102488       0.033
   0.18380288 -0.04547942  0.04102488       0.017
   0.15754532  0.00000000  0.04102488       0.017
   0.18380288 -0.01515981  0.04102488       0.033
   0.21006043  0.00000000  0.04102488       0.006
   0.00000000  0.00000000  0.08204977       0.003
   0.02625755 -0.01515981  0.08204977       0.017
[...]

 k-point   252 :       0.3333    0.3333    0.1667
  band No.  band energies     occupation 
      1     -55.0636      1.00000
      2     -55.0636      1.00000
      3     -28.1181      1.00000
      4     -28.0597      1.00000
      5     -28.0597      1.00000
      6     -27.8793      1.00000
      7     -27.7308      1.00000
      8     -27.7308      1.00000
      9       2.0192      1.00000
     10       2.0193      1.00000
     11       2.0903      1.00000
     12       3.1708      1.00000
     13       7.1795      1.00000
     14       7.2429      1.00000
     15       7.2429      1.00000
     16      11.4834      0.00000
     17      12.4005      0.00000
     18      12.4005      0.00000
     19      14.2732      0.00000
     20      14.2732      0.00000
     21      15.0377      0.00000
     22      16.3875      0.00000
     23      18.0177      0.00000
     24      18.0177      0.00000

 k-point   253 :       0.3333    0.3333    0.1333
  band No.  band energies     occupation 
      1     -55.0636      1.00000
      2     -55.0636      1.00000
      3     -28.1246      1.00000
      4     -28.0414      1.00000
      5     -28.0414      1.00000
      6     -27.8727      1.00000
      7     -27.7497      1.00000
      8     -27.7497      1.00000
      9       1.9937      1.00000
     10       1.9938      1.00000
     11       2.0625      1.00000
     12       3.2009      1.00000
     13       7.1068      1.00000
     14       7.3231      1.00000
     15       7.3231      1.00000
     16      11.7222      0.00000
     17      12.4111      0.00000
     18      12.4111      0.00000
     19      14.2003      0.00000
     20      14.2003      0.00000
     21      14.8854      0.00000
     22      16.3807      0.00000
     23      18.0961      0.00000
     24      18.0962      0.00000

 k-point   254 :       0.3333    0.3333    0.1000
  band No.  band energies     occupation 
      1     -55.0636      1.00000
      2     -55.0636      1.00000
      3     -28.1297      1.00000
      4     -28.0242      1.00000
      5     -28.0242      1.00000
      6     -27.8675      1.00000
      7     -27.7674      1.00000
      8     -27.7674      1.00000
      9       1.9731      1.00000
     10       1.9731      1.00000
     11       2.0408      1.00000
     12       3.2245      1.00000
     13       7.0506      1.00000
     14       7.3903      1.00000
     15       7.3903      1.00000
     16      11.9322      0.00000
     17      12.4166      0.00000
     18      12.4166      0.00000
     19      14.1438      0.00000
     20      14.1439      0.00000
     21      14.7440      0.00000
     22      16.3741      0.00000
     23      18.1702      0.00000
     24      18.1702      0.00000

 k-point   255 :       0.3333    0.3333    0.0667
  band No.  band energies     occupation 
      1     -55.0636      1.00000
      2     -55.0636      1.00000
      3     -28.1334      1.00000
      4     -28.0097      1.00000
      5     -28.0097      1.00000
      6     -27.8637      1.00000
      7     -27.7823      1.00000
      8     -27.7823      1.00000
      9       1.9578      1.00000
     10       1.9578      1.00000
     11       2.0250      1.00000
     12       3.2415      1.00000
     13       7.0106      1.00000
     14       7.4410      1.00000
     15       7.4410      1.00000
     16      12.1003      0.00000
     17      12.4184      0.00000
     18      12.4184      0.00000
     19      14.1042      0.00000
     20      14.1042      0.00000
     21      14.6255      0.00000
     22      16.3685      0.00000
     23      18.2358      0.00000
     24      18.2358      0.00000

 k-point   256 :       0.3333    0.3333    0.0333
  band No.  band energies     occupation 
      1     -55.0636      1.00000
      2     -55.0636      1.00000
      3     -28.1356      1.00000
      4     -27.9997      1.00000
      5     -27.9997      1.00000
      6     -27.8614      1.00000
      7     -27.7926      1.00000
      8     -27.7926      1.00000
      9       1.9484      1.00000
     10       1.9484      1.00000
     11       2.0155      1.00000
     12       3.2516      1.00000
     13       6.9867      1.00000
     14       7.4726      1.00000
     15       7.4726      1.00000
     16      12.2110      0.00000
     17      12.4184      0.00000
     18      12.4184      0.00000
     19      14.0808      0.00000
     20      14.0809      0.00000
     21      14.5448      0.00000
     22      16.3648      0.00000
     23      18.2886      0.00000
     24      18.2887      0.00000

 k-point   257 :       0.3333    0.3333    0.0000
  band No.  band energies     occupation 
      1     -55.0636      1.00000
      2     -55.0636      1.00000
      3     -28.1364      1.00000
      4     -27.9960      1.00000
      5     -27.9960      1.00000
      6     -27.8607      1.00000
      7     -27.7963      1.00000
      8     -27.7963      1.00000
      9       1.9452      1.00000
     10       1.9452      1.00000
     11       2.0124      1.00000
     12       3.2550      1.00000
     13       6.9787      1.00000
     14       7.4833      1.00000
     15       7.4833      1.00000
     16      12.2500      0.00000
     17      12.4182      0.00000
     18      12.4182      0.00000
     19      14.0731      0.00000
     20      14.0732      0.00000
     21      14.5159      0.00000
     22      16.3635      0.00000
     23      18.3244      0.00000
     24      18.3245      0.00000


--------------------------------------------------------------------------------------------------------


 soft charge-density along one line, spin component           1
         0         1         2         3         4         5         6         7         8         9
 total charge-density along one line
 
 soft charge-density along one line, spin component           2
         0         1         2         3         4         5         6         7         8         9
 total charge-density along one line
 
 pseudopotential strength for first ion, spin component:           1
 -5.731   9.298   0.000   0.003   0.000  -0.000   0.003  -0.000
  9.298   3.436  -0.000   0.003  -0.000   0.000  -0.003   0.000
  0.000  -0.000 -16.052  -0.000  -0.000   6.576   0.000   0.000
  0.003   0.003  -0.000 -16.051   0.000   0.000   6.572  -0.000
  0.000  -0.000  -0.000   0.000 -16.052   0.000  -0.000   6.576
 -0.000   0.000   6.576   0.000   0.000   7.142  -0.000  -0.000
  0.003  -0.003   0.000   6.572  -0.000  -0.000   7.143   0.000
 -0.000   0.000   0.000  -0.000   6.576  -0.000   0.000   7.142
 -0.000   0.000   0.000  -0.000   0.002  -0.000   0.000  -0.001
 -0.000   0.000  -0.002   0.000  -0.000   0.003  -0.000   0.000
  0.000  -0.002  -0.000  -0.002  -0.000   0.000   0.003   0.000
  0.000  -0.000  -0.000   0.000  -0.002   0.000  -0.000   0.003
 -0.000   0.000   0.002  -0.000   0.000  -0.001   0.000  -0.000
 -0.000   0.000   0.000  -0.000   0.002  -0.000   0.000  -0.001
 -0.000   0.000  -0.002   0.000  -0.000   0.003  -0.000   0.000
  0.000  -0.003  -0.000  -0.002  -0.000   0.000   0.003   0.000
  0.000  -0.000  -0.000   0.000  -0.002   0.000  -0.000   0.003
 -0.000   0.000   0.002  -0.000   0.000  -0.001   0.000  -0.000
 pseudopotential strength for first ion, spin component:           2
 -5.731   9.298   0.000   0.003   0.000  -0.000   0.003  -0.000
  9.298   3.436  -0.000   0.003  -0.000   0.000  -0.003   0.000
  0.000  -0.000 -16.052  -0.000  -0.000   6.576   0.000   0.000
  0.003   0.003  -0.000 -16.051   0.000   0.000   6.572  -0.000
  0.000  -0.000  -0.000   0.000 -16.052   0.000  -0.000   6.576
 -0.000   0.000   6.576   0.000   0.000   7.142  -0.000  -0.000
  0.003  -0.003   0.000   6.572  -0.000  -0.000   7.143   0.000
 -0.000   0.000   0.000  -0.000   6.576  -0.000   0.000   7.142
 -0.000   0.000   0.000  -0.000   0.002  -0.000   0.000  -0.001
 -0.000   0.000  -0.002   0.000  -0.000   0.003  -0.000   0.000
  0.000  -0.002  -0.000  -0.002  -0.000   0.000   0.003   0.000
  0.000  -0.000  -0.000   0.000  -0.002   0.000  -0.000   0.003
 -0.000   0.000   0.002  -0.000   0.000  -0.001   0.000  -0.000
 -0.000   0.000   0.000  -0.000   0.002  -0.000   0.000  -0.001
 -0.000   0.000  -0.002   0.000  -0.000   0.003  -0.000   0.000
  0.000  -0.003  -0.000  -0.002  -0.000   0.000   0.003   0.000
  0.000  -0.000  -0.000   0.000  -0.002   0.000  -0.000   0.003
 -0.000   0.000   0.002  -0.000   0.000  -0.001   0.000  -0.000
 total augmentation occupancy for first ion, spin component:           1
  2.000   0.000   0.000   0.000   0.000   0.000   0.000   0.000   0.000   0.000   0.000   0.000   0.000   0.000   0.000   0.000
  0.000   1.000   0.000   0.000   0.000   0.000   0.000   0.000   0.000   0.000   0.000   0.000   0.000   0.000   0.000   0.000
  0.000   0.000   2.000   0.000   0.000   0.000   0.000   0.000   0.000   0.000   0.000   0.000   0.000   0.000   0.000   0.000
  0.000   0.000   0.000   2.000   0.000   0.000   0.000   0.000   0.000   0.000   0.000   0.000   0.000   0.000   0.000   0.000
  0.000   0.000   0.000   0.000   2.000   0.000   0.000   0.000   0.000   0.000   0.000   0.000   0.000   0.000   0.000   0.000
  0.000   0.000   0.000   0.000   0.000   0.000   0.000   0.000   0.000   0.000   0.000   0.000   0.000   0.000   0.000   0.000
  0.000   0.000   0.000   0.000   0.000   0.000   0.000   0.000   0.000   0.000   0.000   0.000   0.000   0.000   0.000   0.000
  0.000   0.000   0.000   0.000   0.000   0.000   0.000   0.000   0.000   0.000   0.000   0.000   0.000   0.000   0.000   0.000
  0.000   0.000   0.000   0.000   0.000   0.000   0.000   0.000   1.000   0.000   0.000   0.000   0.000   0.000   0.000   0.000
  0.000   0.000   0.000   0.000   0.000   0.000   0.000   0.000   0.000   1.000   0.000   0.000   0.000   0.000   0.000   0.000
  0.000   0.000   0.000   0.000   0.000   0.000   0.000   0.000   0.000   0.000   1.000   0.000   0.000   0.000   0.000   0.000
  0.000   0.000   0.000   0.000   0.000   0.000   0.000   0.000   0.000   0.000   0.000   1.000   0.000   0.000   0.000   0.000
  0.000   0.000   0.000   0.000   0.000   0.000   0.000   0.000   0.000   0.000   0.000   0.000   1.000   0.000   0.000   0.000
  0.000   0.000   0.000   0.000   0.000   0.000   0.000   0.000   0.000   0.000   0.000   0.000   0.000   0.000   0.000   0.000
  0.000   0.000   0.000   0.000   0.000   0.000   0.000   0.000   0.000   0.000   0.000   0.000   0.000   0.000   0.000   0.000
  0.000   0.000   0.000   0.000   0.000   0.000   0.000   0.000   0.000   0.000   0.000   0.000   0.000   0.000   0.000   0.000
  0.000   0.000   0.000   0.000   0.000   0.000   0.000   0.000   0.000   0.000   0.000   0.000   0.000   0.000   0.000   0.000
  0.000   0.000   0.000   0.000   0.000   0.000   0.000   0.000   0.000   0.000   0.000   0.000   0.000   0.000   0.000   0.000
 total augmentation occupancy for first ion, spin component:           2
  0.143   0.000   0.000   0.000   0.000   0.000   0.000   0.000   0.000   0.000   0.000   0.000   0.000   0.000   0.000   0.000
  0.000   0.071   0.000   0.000   0.000   0.000   0.000   0.000   0.000   0.000   0.000   0.000   0.000   0.000   0.000   0.000
  0.000   0.000   0.143   0.000   0.000   0.000   0.000   0.000   0.000   0.000   0.000   0.000   0.000   0.000   0.000   0.000
  0.000   0.000   0.000   0.143   0.000   0.000   0.000   0.000   0.000   0.000   0.000   0.000   0.000   0.000   0.000   0.000
  0.000   0.000   0.000   0.000   0.143   0.000   0.000   0.000   0.000   0.000   0.000   0.000   0.000   0.000   0.000   0.000
  0.000   0.000   0.000   0.000   0.000   0.000   0.000   0.000   0.000   0.000   0.000   0.000   0.000   0.000   0.000   0.000
  0.000   0.000   0.000   0.000   0.000   0.000   0.000   0.000   0.000   0.000   0.000   0.000   0.000   0.000   0.000   0.000
  0.000   0.000   0.000   0.000   0.000   0.000   0.000   0.000   0.000   0.000   0.000   0.000   0.000   0.000   0.000   0.000
  0.000   0.000   0.000   0.000   0.000   0.000   0.000   0.000   0.071   0.000   0.000   0.000   0.000   0.000   0.000   0.000
  0.000   0.000   0.000   0.000   0.000   0.000   0.000   0.000   0.000   0.071   0.000   0.000   0.000   0.000   0.000   0.000
  0.000   0.000   0.000   0.000   0.000   0.000   0.000   0.000   0.000   0.000   0.071   0.000   0.000   0.000   0.000   0.000
  0.000   0.000   0.000   0.000   0.000   0.000   0.000   0.000   0.000   0.000   0.000   0.071   0.000   0.000   0.000   0.000
  0.000   0.000   0.000   0.000   0.000   0.000   0.000   0.000   0.000   0.000   0.000   0.000   0.071   0.000   0.000   0.000
  0.000   0.000   0.000   0.000   0.000   0.000   0.000   0.000   0.000   0.000   0.000   0.000   0.000   0.000   0.000   0.000
  0.000   0.000   0.000   0.000   0.000   0.000   0.000   0.000   0.000   0.000   0.000   0.000   0.000   0.000   0.000   0.000
  0.000   0.000   0.000   0.000   0.000   0.000   0.000   0.000   0.000   0.000   0.000   0.000   0.000   0.000   0.000   0.000
  0.000   0.000   0.000   0.000   0.000   0.000   0.000   0.000   0.000   0.000   0.000   0.000   0.000   0.000   0.000   0.000
  0.000   0.000   0.000   0.000   0.000   0.000   0.000   0.000   0.000   0.000   0.000   0.000   0.000   0.000   0.000   0.000


------------------------ aborting loop because EDIFF is reached ----------------------------------------


 


 total charge     
 
# of ion       s       p       d       tot
------------------------------------------
    1        2.254   6.188   3.923  12.365
    2        2.249   6.190   3.898  12.337
    3        0.550   0.028   0.000   0.578
    4        0.552   0.029   0.000   0.580
    5        0.577   0.035   0.000   0.612
    6        0.578   0.035   0.000   0.613
--------------------------------------------------
tot          6.759  12.504   7.821  27.085
 


 magnetization (x)
 
# of ion       s       p       d       tot
------------------------------------------
    1       -0.000   0.000   0.001   0.001
    2        0.000   0.000   0.001   0.001
    3       -0.000   0.000   0.000  -0.000
    4       -0.000   0.000   0.000  -0.000
    5       -0.000   0.000   0.000   0.000
    6       -0.000   0.000   0.000   0.000
--------------------------------------------------
tot         -0.000   0.000   0.002   0.002
 
    CHARGE:  cpu time    0.1756: real time    0.3533
    FORLOC:  cpu time    0.0005: real time    0.0005
    FORHF :  cpu time 2918.6757: real time 2918.9613
    FORNL :  cpu time    0.2067: real time    0.2112
    FORCOR:  cpu time    0.1422: real time    0.1435
    FORHAR:  cpu time    0.0015: real time    0.0016
    OFIELD:  cpu time    0.0006: real time    0.0006

 VOLUME and BASIS-vectors are now :
 -----------------------------------------------------------------------------
  energy-cutoff  :      520.00
  volume of cell :       42.52
      direct lattice vectors                 reciprocal lattice vectors
     1.586844931 -2.748496056  0.000000000     0.315090649 -0.181917671  0.000000000
     1.586844931  2.748496056  0.000000000     0.315090649  0.181917671  0.000000000
     0.000000000  0.000000000  4.875089840     0.000000000  0.000000000  0.205124425

  length of vectors
     3.173689872  3.173689872  4.875089840     0.363835342  0.363835342  0.205124425


 FORCES acting on ions
    electron-ion (+dipol)            ewald-force                    non-local-force                 convergence-correction
 -----------------------------------------------------------------------------------------------
   0.316E-03 0.251E-02 0.197E+02   0.166E-13 0.494E-03 -.183E+02   -.139E-16 0.000E+00 -.135E+01   -.178E-03 0.134E-02 -.144E+00
   0.389E-03 -.382E-02 0.197E+02   0.335E-14 -.494E-03 -.183E+02   0.416E-16 0.000E+00 -.135E+01   -.223E-03 0.113E-02 -.144E+00
   0.263E-05 0.153E-04 -.119E+02   0.518E-15 -.935E-04 0.128E+02   -.434E-18 0.173E-17 -.881E+00   0.311E-05 -.747E-05 -.515E-01
   0.160E-05 -.191E-04 -.119E+02   -.462E-14 0.935E-04 0.128E+02   -.867E-18 0.000E+00 -.881E+00   0.365E-05 -.429E-04 -.515E-01
   0.421E-05 0.337E-05 -.519E+01   -.466E-14 0.199E-03 0.556E+01   0.136E-19 0.976E-18 -.400E+00   0.147E-05 -.229E-04 -.291E-01
   0.759E-05 -.227E-04 -.519E+01   0.167E-14 -.199E-03 0.556E+01   0.217E-18 0.000E+00 -.400E+00   0.988E-07 0.718E-05 -.291E-01
 -----------------------------------------------------------------------------------------------
   0.721E-03 -.133E-02 0.524E+01   0.128E-13 0.573E-14 -.533E-14   0.267E-16 0.271E-17 -.526E+01   -.393E-03 0.241E-02 -.450E+00
 
 
 POSITION                                       TOTAL-FORCE (eV/Angst)
 -----------------------------------------------------------------------------------
      1.58684     -0.91617      2.18541        -0.000000     -0.000000      0.208551
      1.58684      0.91617      4.62296        -0.000000      0.000000      0.208551
      0.00000      0.00000      2.68976         0.000000     -0.000000     -0.130023
      0.00000      0.00000      0.25222         0.000000     -0.000000     -0.130023
      1.58684     -0.91617      4.02187         0.000000     -0.000000     -0.078528
      1.58684      0.91617      1.58432         0.000000     -0.000000     -0.078528
 -----------------------------------------------------------------------------------
    total drift:                                0.000328      0.001078      0.024341


--------------------------------------------------------------------------------------------------------



  FREE ENERGIE OF THE ION-ELECTRON SYSTEM (eV)
  ---------------------------------------------------
  free  energy   TOTEN  =       -35.48607139 eV

  energy  without entropy=      -35.48472504  energy(sigma->0) =      -35.48539822
 


--------------------------------------------------------------------------------------------------------


    POTLOK:  cpu time    0.1375: real time    0.1386


--------------------------------------------------------------------------------------------------------


     LOOP+:  cpu time32142.8620: real time32149.1927
    4ORBIT:  cpu time    0.0000: real time    0.0000
 


 total charge     
 
# of ion       s       p       d       tot
------------------------------------------
    1        2.254   6.188   3.923  12.365
    2        2.249   6.190   3.898  12.337
    3        0.550   0.028   0.000   0.578
    4        0.552   0.029   0.000   0.580
    5        0.577   0.035   0.000   0.612
    6        0.578   0.035   0.000   0.613
--------------------------------------------------
tot          6.759  12.504   7.821  27.085
 


 magnetization (x)
 
# of ion       s       p       d       tot
------------------------------------------
    1       -0.000   0.000   0.001   0.001
    2        0.000   0.000   0.001   0.001
    3       -0.000   0.000   0.000  -0.000
    4       -0.000   0.000   0.000  -0.000
    5       -0.000   0.000   0.000   0.000
    6       -0.000   0.000   0.000   0.000
--------------------------------------------------
tot         -0.000   0.000   0.002   0.002
 

 total amount of memory used by VASP MPI-rank0    60202. kBytes
=======================================================================

   base      :      30000. kBytes
   nonl-proj :      13043. kBytes
   fftplans  :        652. kBytes
   grid      :        492. kBytes
   one-center:         31. kBytes
   HF        :         64. kBytes
   nonlr-proj:       1118. kBytes
   wavefun   :      14802. kBytes
 
  
  
 General timing and accounting informations for this job:
 ========================================================
  
                  Total CPU time used (sec):    32208.623
                            User time (sec):    32205.060
                          System time (sec):        3.564
                         Elapsed time (sec):    32249.308
  
                   Maximum memory used (kb):      269940.
                   Average memory used (kb):           0.
  
                          Minor page faults:       666085
                          Major page faults:         3807
                 Voluntary context switches:         5933
