 vasp.5.4.1 24Jun15 (build Nov 23 2015 09:58:10) complex                        
  
 executed on             LinuxIFC date 2020.05.09  19:28:16
 running on   24 total cores
 distrk:  each k-point on   24 cores,    1 groups
 distr:  one band on NCORES_PER_BAND=   6 cores,    4 groups


--------------------------------------------------------------------------------------------------------


 INCAR:
 POTCAR:    PAW_PBE Cd 06Sep2000                  
 POTCAR:    PAW_PBE N 08Apr2002                   
 POTCAR:    PAW_PBE Cd 06Sep2000                  
   VRHFIN =Cd : s2 d10                                                          
   LEXCH  = PE                                                                  
   EATOM  =  1293.1815 eV,   95.0462 Ry                                         
                                                                                
   TITEL  = PAW_PBE Cd 06Sep2000                                                
   LULTRA =        F    use ultrasoft PP ?                                      
   IUNSCR =        1    unscreen: 0-lin 1-nonlin 2-no                           
   RPACOR =    2.000    partial core radius                                     
   POMASS =  112.411; ZVAL   =   12.000    mass and valenz                      
   RCORE  =    2.300    outmost cutoff radius                                   
   RWIGS  =    2.980; RWIGS  =    1.577    wigner-seitz radius (au A)           
   ENMAX  =  274.336; ENMIN  =  205.752 eV                                      
   RCLOC  =    2.054    cutoff for local pot                                    
   LCOR   =        T    correct aug charges                                     
   LPAW   =        T    paw PP                                                  
   EAUG   =  456.106                                                            
   DEXC   =    0.000                                                            
   RMAX   =    2.358    core radius for proj-oper                               
   RAUG   =    1.300    factor for augmentation sphere                          
   RDEP   =    2.450    radius for radial grids                                 
   RDEPT  =    1.955    core radius for aug-charge                              
                                                                                
   Atomic configuration                                                         
   12 entries                                                                   
     n  l   j            E        occ.                                          
     1  0  0.50    -26519.7817   2.0000                                         
     2  0  0.50     -3936.9612   2.0000                                         
     2  1  1.50     -3532.2230   6.0000                                         
     3  0  0.50      -733.7908   2.0000                                         
     3  1  1.50      -601.0792   6.0000                                         
     3  2  2.50      -393.5307  10.0000                                         
     4  0  0.50      -105.8977   2.0000                                         
     4  1  1.50       -66.9488   6.0000                                         
     4  2  2.50       -11.7331  10.0000                                         
     5  0  0.50        -5.6592   2.0000                                         
     5  1  0.50        -1.3606   0.0000                                         
     4  3  2.50        -1.3606   0.0000                                         
   Description                                                                  
     l       E           TYP  RCUT    TYP  RCUT                                 
     2    -11.7331479     23  2.300                                             
     2    -13.0937305     23  2.300                                             
     0     -5.6591502     23  2.300                                             
     0     -1.5561433     23  2.300                                             
     1     -2.7211652     23  2.300                                             
     1      8.3548275     23  2.300                                             
  local pseudopotential read in
  partial core-charges read in
  partial kinetic energy density read in
  atomic valenz-charges read in
  non local Contribution for L=           2  read in
    real space projection operators read in
  non local Contribution for L=           2  read in
    real space projection operators read in
  non local Contribution for L=           0  read in
    real space projection operators read in
  non local Contribution for L=           0  read in
    real space projection operators read in
  non local Contribution for L=           1  read in
    real space projection operators read in
  non local Contribution for L=           1  read in
    real space projection operators read in
    PAW grid and wavefunctions read in
 
   number of l-projection  operators is LMAX  =           6
   number of lm-projection operators is LMMAX =          18
 
 POTCAR:    PAW_PBE N 08Apr2002                   
   VRHFIN =N: s2p3                                                              
   LEXCH  = PE                                                                  
   EATOM  =   264.5486 eV,   19.4438 Ry                                         
                                                                                
   TITEL  = PAW_PBE N 08Apr2002                                                 
   LULTRA =        F    use ultrasoft PP ?                                      
   IUNSCR =        1    unscreen: 0-lin 1-nonlin 2-no                           
   RPACOR =    1.200    partial core radius                                     
   POMASS =   14.001; ZVAL   =    5.000    mass and valenz                      
   RCORE  =    1.500    outmost cutoff radius                                   
   RWIGS  =    1.400; RWIGS  =    0.741    wigner-seitz radius (au A)           
   ENMAX  =  400.000; ENMIN  =  300.000 eV                                      
   ICORE  =        2    local potential                                         
   LCOR   =        T    correct aug charges                                     
   LPAW   =        T    paw PP                                                  
   EAUG   =  627.112                                                            
   DEXC   =    0.000                                                            
   RMAX   =    1.529    core radius for proj-oper                               
   RAUG   =    1.300    factor for augmentation sphere                          
   RDEP   =    1.514    radius for radial grids                                 
   RDEPT  =    1.338    core radius for aug-charge                              
                                                                                
   Atomic configuration                                                         
    4 entries                                                                   
     n  l   j            E        occ.                                          
     1  0  0.50      -384.7179   2.0000                                         
     2  0  0.50       -18.5828   2.0000                                         
     2  1  0.50        -7.0898   3.0000                                         
     3  2  1.50        -6.8029   0.0000                                         
   Description                                                                  
     l       E           TYP  RCUT    TYP  RCUT                                 
     0    -18.5828119     23  1.200                                             
     0    -13.5018863     23  1.200                                             
     1     -7.0897853     23  1.500                                             
     1      9.5240782     23  1.500                                             
     2     -6.8029130      7  1.500                                             
  local pseudopotential read in
  partial core-charges read in
  partial kinetic energy density read in
  atomic valenz-charges read in
  non local Contribution for L=           0  read in
    real space projection operators read in
  non local Contribution for L=           0  read in
    real space projection operators read in
  non local Contribution for L=           1  read in
    real space projection operators read in
  non local Contribution for L=           1  read in
    real space projection operators read in
    PAW grid and wavefunctions read in
 
   number of l-projection  operators is LMAX  =           4
   number of lm-projection operators is LMMAX =           8
 
  PAW_PBE Cd 06Sep2000                  :
 energy of atom  1       EATOM=-1293.1815
 kinetic energy error for atom=    0.0062 (will be added to EATOM!!)
  PAW_PBE N 08Apr2002                   :
 energy of atom  2       EATOM= -264.5486
 kinetic energy error for atom=    0.0125 (will be added to EATOM!!)
 
 
 POSCAR: Cd1 N1                                  
  positions in direct lattice
  velocities in cartesian coordinates
 exchange correlation table for  LEXCH =        8
   RHO(1)=    0.500       N(1)  =     2000
   RHO(2)=  100.500       N(2)  =     4000
 


--------------------------------------------------------------------------------------------------------


 ion  position               nearest neighbor table
   1  0.000  0.000  0.000-   2 2.23   2 2.23   2 2.23   2 2.23
   2  0.250  0.250  0.250-   1 2.23   1 2.23   1 2.23   1 2.23
 
  LATTYP: Found a face centered cubic cell.
 ALAT       =     5.1400000000
  
  Lattice vectors:
  
 A1 = (   0.0000000000,   2.5700000000,   2.5700000000)
 A2 = (   2.5700000000,   0.0000000000,   2.5700000000)
 A3 = (   2.5700000000,   2.5700000000,   0.0000000000)


Analysis of symmetry for initial positions (statically):
=====================================================================
 Subroutine PRICEL returns:
 Original cell was already a primitive cell.
 

 Routine SETGRP: Setting up the symmetry group for a 
 face centered cubic supercell.


 Subroutine GETGRP returns: Found 24 space group operations
 (whereof 24 operations were pure point group operations)
 out of a pool of 48 trial point group operations.


The static configuration has the point symmetry T_d .


Analysis of symmetry for dynamics (positions and initial velocities):
=====================================================================
 Subroutine PRICEL returns:
 Original cell was already a primitive cell.
 

 Routine SETGRP: Setting up the symmetry group for a 
 face centered cubic supercell.


 Subroutine GETGRP returns: Found 24 space group operations
 (whereof 24 operations were pure point group operations)
 out of a pool of 48 trial point group operations.


The dynamic configuration has the point symmetry T_d .


Analysis of magnetic symmetry:
=====================================================================
 Subroutine PRICEL returns:
 Original cell was already a primitive cell.
 

 Subroutine MAGSYM returns: Found 24 space group operations
 (whereof 24 operations were pure point group operations)
 out of a pool of 24 trial space group operations
 (whereof 24 operations were pure point group operations)
 and found also     1 'primitive' translations


The magnetic configuration has the point symmetry T_d .
 
 
 KPOINTS: K-Mesh                                  

Automatic generation of k-mesh.
Space group operators:
 irot       det(A)        alpha          n_x          n_y          n_z        tau_x        tau_y        tau_z
    1     1.000000     0.000000     1.000000     0.000000     0.000000     0.000000     0.000000     0.000000
    2     1.000000   120.000000    -0.577350    -0.577350    -0.577350     0.000000     0.000000     0.000000
    3     1.000000   120.000000     0.577350     0.577350     0.577350     0.000000     0.000000     0.000000
    4    -1.000000    90.000000     0.000000     0.000000    -1.000000     0.000000     0.000000     0.000000
    5    -1.000000   180.000000     0.000000     0.707107     0.707107     0.000000     0.000000     0.000000
    6    -1.000000    90.000000     0.000000     1.000000     0.000000     0.000000     0.000000     0.000000
    7     1.000000   180.000000     0.000000     0.000000     1.000000     0.000000     0.000000     0.000000
    8     1.000000   120.000000    -0.577350     0.577350     0.577350     0.000000     0.000000     0.000000
    9     1.000000   120.000000    -0.577350     0.577350    -0.577350     0.000000     0.000000     0.000000
   10    -1.000000    90.000000     0.000000     0.000000     1.000000     0.000000     0.000000     0.000000
   11    -1.000000    90.000000    -1.000000     0.000000     0.000000     0.000000     0.000000     0.000000
   12    -1.000000   180.000000     0.707107     0.000000     0.707107     0.000000     0.000000     0.000000
   13     1.000000   120.000000     0.577350    -0.577350     0.577350     0.000000     0.000000     0.000000
   14     1.000000   120.000000    -0.577350    -0.577350     0.577350     0.000000     0.000000     0.000000
   15     1.000000   180.000000     1.000000     0.000000     0.000000     0.000000     0.000000     0.000000
   16    -1.000000    90.000000     0.000000    -1.000000     0.000000     0.000000     0.000000     0.000000
   17    -1.000000   180.000000     0.707107     0.707107     0.000000     0.000000     0.000000     0.000000
   18    -1.000000    90.000000     1.000000     0.000000     0.000000     0.000000     0.000000     0.000000
   19     1.000000   120.000000     0.577350    -0.577350    -0.577350     0.000000     0.000000     0.000000
   20     1.000000   180.000000     0.000000     1.000000     0.000000     0.000000     0.000000     0.000000
   21     1.000000   120.000000     0.577350     0.577350    -0.577350     0.000000     0.000000     0.000000
   22    -1.000000   180.000000     0.000000    -0.707107     0.707107     0.000000     0.000000     0.000000
   23    -1.000000   180.000000     0.707107    -0.707107     0.000000     0.000000     0.000000     0.000000
   24    -1.000000   180.000000     0.707107     0.000000    -0.707107     0.000000     0.000000     0.000000
 
 Subroutine IBZKPT returns following result:
 ===========================================
 
 Found    165 irreducible k-points:
 
 Following reciprocal coordinates:
            Coordinates               Weight
  0.000000  0.000000  0.000000      1.000000
  0.058824  0.000000  0.000000      8.000000
  0.117647  0.000000  0.000000      8.000000
  0.176471  0.000000  0.000000      8.000000
  0.235294  0.000000  0.000000      8.000000
  0.294118  0.000000  0.000000      8.000000
  0.352941  0.000000  0.000000      8.000000
  0.411765  0.000000  0.000000      8.000000
  0.470588  0.000000  0.000000      8.000000
  0.058824  0.058824  0.000000      6.000000
  0.117647  0.058824  0.000000     24.000000
  0.176471  0.058824  0.000000     24.000000
  0.235294  0.058824  0.000000     24.000000
  0.294118  0.058824  0.000000     24.000000
  0.352941  0.058824  0.000000     24.000000
  0.411765  0.058824  0.000000     24.000000
  0.470588  0.058824  0.000000     24.000000
 -0.470588  0.058824  0.000000     24.000000
 -0.411765  0.058824  0.000000     24.000000
 -0.352941  0.058824  0.000000     24.000000
 -0.294118  0.058824  0.000000     24.000000
 -0.235294  0.058824  0.000000     24.000000
 -0.176471  0.058824  0.000000     24.000000
 -0.117647  0.058824  0.000000     24.000000
 -0.058824  0.058824  0.000000     12.000000
  0.117647  0.117647  0.000000      6.000000
  0.176471  0.117647  0.000000     24.000000
  0.235294  0.117647  0.000000     24.000000
  0.294118  0.117647  0.000000     24.000000
  0.352941  0.117647  0.000000     24.000000
  0.411765  0.117647  0.000000     24.000000
  0.470588  0.117647  0.000000     24.000000
 -0.470588  0.117647  0.000000     24.000000
 -0.411765  0.117647  0.000000     24.000000
 -0.352941  0.117647  0.000000     24.000000
 -0.294118  0.117647  0.000000     24.000000
 -0.235294  0.117647  0.000000     24.000000
 -0.176471  0.117647  0.000000     24.000000
 -0.117647  0.117647  0.000000     12.000000
  0.176471  0.176471  0.000000      6.000000
  0.235294  0.176471  0.000000     24.000000
  0.294118  0.176471  0.000000     24.000000
  0.352941  0.176471  0.000000     24.000000
  0.411765  0.176471  0.000000     24.000000
  0.470588  0.176471  0.000000     24.000000
 -0.470588  0.176471  0.000000     24.000000
 -0.411765  0.176471  0.000000     24.000000
 -0.352941  0.176471  0.000000     24.000000
 -0.294118  0.176471  0.000000     24.000000
 -0.235294  0.176471  0.000000     24.000000
 -0.176471  0.176471  0.000000     12.000000
  0.235294  0.235294  0.000000      6.000000
  0.294118  0.235294  0.000000     24.000000
  0.352941  0.235294  0.000000     24.000000
  0.411765  0.235294  0.000000     24.000000
  0.470588  0.235294  0.000000     24.000000
 -0.470588  0.235294  0.000000     24.000000
 -0.411765  0.235294  0.000000     24.000000
 -0.352941  0.235294  0.000000     24.000000
 -0.294118  0.235294  0.000000     24.000000
 -0.235294  0.235294  0.000000     12.000000
  0.294118  0.294118  0.000000      6.000000
  0.352941  0.294118  0.000000     24.000000
  0.411765  0.294118  0.000000     24.000000
  0.470588  0.294118  0.000000     24.000000
 -0.470588  0.294118  0.000000     24.000000
 -0.411765  0.294118  0.000000     24.000000
 -0.352941  0.294118  0.000000     24.000000
 -0.294118  0.294118  0.000000     12.000000
  0.352941  0.352941  0.000000      6.000000
  0.411765  0.352941  0.000000     24.000000
  0.470588  0.352941  0.000000     24.000000
 -0.470588  0.352941  0.000000     24.000000
 -0.411765  0.352941  0.000000     24.000000
 -0.352941  0.352941  0.000000     12.000000
  0.411765  0.411765  0.000000      6.000000
  0.470588  0.411765  0.000000     24.000000
 -0.470588  0.411765  0.000000     24.000000
 -0.411765  0.411765  0.000000     12.000000
  0.470588  0.470588  0.000000      6.000000
 -0.470588  0.470588  0.000000     12.000000
  0.176471  0.117647  0.058824     24.000000
  0.235294  0.117647  0.058824     48.000000
  0.294118  0.117647  0.058824     48.000000
  0.352941  0.117647  0.058824     48.000000
  0.411765  0.117647  0.058824     48.000000
  0.470588  0.117647  0.058824     48.000000
 -0.470588  0.117647  0.058824     48.000000
  0.235294  0.176471  0.058824     24.000000
  0.294118  0.176471  0.058824     48.000000
  0.352941  0.176471  0.058824     48.000000
  0.411765  0.176471  0.058824     48.000000
  0.470588  0.176471  0.058824     48.000000
 -0.470588  0.176471  0.058824     48.000000
 -0.411765  0.176471  0.058824     48.000000
 -0.352941  0.176471  0.058824     48.000000
 -0.294118  0.176471  0.058824     48.000000
 -0.235294  0.176471  0.058824     48.000000
 -0.176471  0.176471  0.058824     48.000000
 -0.117647  0.176471  0.058824     24.000000
  0.294118  0.235294  0.058824     24.000000
  0.352941  0.235294  0.058824     48.000000
  0.411765  0.235294  0.058824     48.000000
  0.470588  0.235294  0.058824     48.000000
 -0.470588  0.235294  0.058824     48.000000
 -0.411765  0.235294  0.058824     48.000000
 -0.352941  0.235294  0.058824     48.000000
 -0.294118  0.235294  0.058824     48.000000
 -0.235294  0.235294  0.058824     48.000000
 -0.176471  0.235294  0.058824     24.000000
  0.352941  0.294118  0.058824     24.000000
  0.411765  0.294118  0.058824     48.000000
  0.470588  0.294118  0.058824     48.000000
 -0.470588  0.294118  0.058824     48.000000
 -0.411765  0.294118  0.058824     48.000000
 -0.352941  0.294118  0.058824     48.000000
 -0.294118  0.294118  0.058824     48.000000
 -0.235294  0.294118  0.058824     24.000000
  0.411765  0.352941  0.058824     24.000000
  0.470588  0.352941  0.058824     48.000000
 -0.470588  0.352941  0.058824     48.000000
 -0.411765  0.352941  0.058824     48.000000
 -0.352941  0.352941  0.058824     48.000000
 -0.294118  0.352941  0.058824     24.000000
  0.470588  0.411765  0.058824     24.000000
 -0.470588  0.411765  0.058824     48.000000
 -0.411765  0.411765  0.058824     48.000000
 -0.352941  0.411765  0.058824     24.000000
 -0.470588  0.470588  0.058824     24.000000
 -0.411765  0.470588  0.058824     24.000000
  0.352941  0.235294  0.117647     24.000000
  0.411765  0.235294  0.117647     48.000000
  0.470588  0.235294  0.117647     48.000000
 -0.470588  0.235294  0.117647     48.000000
 -0.411765  0.235294  0.117647     48.000000
  0.411765  0.294118  0.117647     24.000000
  0.470588  0.294118  0.117647     48.000000
 -0.470588  0.294118  0.117647     48.000000
 -0.411765  0.294118  0.117647     48.000000
 -0.352941  0.294118  0.117647     48.000000
 -0.294118  0.294118  0.117647     48.000000
 -0.235294  0.294118  0.117647     48.000000
 -0.176471  0.294118  0.117647     24.000000
  0.470588  0.352941  0.117647     24.000000
 -0.470588  0.352941  0.117647     48.000000
 -0.411765  0.352941  0.117647     48.000000
 -0.352941  0.352941  0.117647     48.000000
 -0.294118  0.352941  0.117647     48.000000
 -0.235294  0.352941  0.117647     24.000000
 -0.470588  0.411765  0.117647     24.000000
 -0.411765  0.411765  0.117647     48.000000
 -0.352941  0.411765  0.117647     48.000000
 -0.294118  0.411765  0.117647     24.000000
 -0.411765  0.470588  0.117647     24.000000
 -0.352941  0.470588  0.117647     24.000000
 -0.470588  0.352941  0.176471     24.000000
 -0.411765  0.352941  0.176471     48.000000
 -0.352941  0.352941  0.176471     48.000000
 -0.411765  0.411765  0.176471     24.000000
 -0.352941  0.411765  0.176471     48.000000
 -0.294118  0.411765  0.176471     48.000000
 -0.235294  0.411765  0.176471     24.000000
 -0.352941  0.470588  0.176471     24.000000
 -0.294118  0.470588  0.176471     24.000000
 -0.294118  0.470588  0.235294     24.000000
 
 Following cartesian coordinates:
            Coordinates               Weight
  0.000000  0.000000  0.000000      1.000000
 -0.011444  0.011444  0.011444      8.000000
 -0.022889  0.022889  0.022889      8.000000
 -0.034333  0.034333  0.034333      8.000000
 -0.045777  0.045777  0.045777      8.000000
 -0.057221  0.057221  0.057221      8.000000
 -0.068666  0.068666  0.068666      8.000000
 -0.080110  0.080110  0.080110      8.000000
 -0.091554  0.091554  0.091554      8.000000
  0.000000  0.000000  0.022889      6.000000
 -0.011444  0.011444  0.034333     24.000000
 -0.022889  0.022889  0.045777     24.000000
 -0.034333  0.034333  0.057221     24.000000
 -0.045777  0.045777  0.068666     24.000000
 -0.057221  0.057221  0.080110     24.000000
 -0.068666  0.068666  0.091554     24.000000
 -0.080110  0.080110  0.102998     24.000000
  0.102998 -0.102998 -0.080110     24.000000
  0.091554 -0.091554 -0.068666     24.000000
  0.080110 -0.080110 -0.057221     24.000000
  0.068666 -0.068666 -0.045777     24.000000
  0.057221 -0.057221 -0.034333     24.000000
  0.045777 -0.045777 -0.022889     24.000000
  0.034333 -0.034333 -0.011444     24.000000
  0.022889 -0.022889  0.000000     12.000000
  0.000000  0.000000  0.045777      6.000000
 -0.011444  0.011444  0.057221     24.000000
 -0.022889  0.022889  0.068666     24.000000
 -0.034333  0.034333  0.080110     24.000000
 -0.045777  0.045777  0.091554     24.000000
 -0.057221  0.057221  0.102998     24.000000
 -0.068666  0.068666  0.114443     24.000000
  0.114443 -0.114443 -0.068666     24.000000
  0.102998 -0.102998 -0.057221     24.000000
  0.091554 -0.091554 -0.045777     24.000000
  0.080110 -0.080110 -0.034333     24.000000
  0.068666 -0.068666 -0.022889     24.000000
  0.057221 -0.057221 -0.011444     24.000000
  0.045777 -0.045777  0.000000     12.000000
  0.000000  0.000000  0.068666      6.000000
 -0.011444  0.011444  0.080110     24.000000
 -0.022889  0.022889  0.091554     24.000000
 -0.034333  0.034333  0.102998     24.000000
 -0.045777  0.045777  0.114443     24.000000
 -0.057221  0.057221  0.125887     24.000000
  0.125887 -0.125887 -0.057221     24.000000
  0.114443 -0.114443 -0.045777     24.000000
  0.102998 -0.102998 -0.034333     24.000000
  0.091554 -0.091554 -0.022889     24.000000
  0.080110 -0.080110 -0.011444     24.000000
  0.068666 -0.068666  0.000000     12.000000
  0.000000  0.000000  0.091554      6.000000
 -0.011444  0.011444  0.102998     24.000000
 -0.022889  0.022889  0.114443     24.000000
 -0.034333  0.034333  0.125887     24.000000
 -0.045777  0.045777  0.137331     24.000000
  0.137331 -0.137331 -0.045777     24.000000
  0.125887 -0.125887 -0.034333     24.000000
  0.114443 -0.114443 -0.022889     24.000000
  0.102998 -0.102998 -0.011444     24.000000
  0.091554 -0.091554  0.000000     12.000000
  0.000000  0.000000  0.114443      6.000000
 -0.011444  0.011444  0.125887     24.000000
 -0.022889  0.022889  0.137331     24.000000
 -0.034333  0.034333  0.148775     24.000000
  0.148775 -0.148775 -0.034333     24.000000
  0.137331 -0.137331 -0.022889     24.000000
  0.125887 -0.125887 -0.011444     24.000000
  0.114443 -0.114443  0.000000     12.000000
  0.000000  0.000000  0.137331      6.000000
 -0.011444  0.011444  0.148775     24.000000
 -0.022889  0.022889  0.160220     24.000000
  0.160220 -0.160220 -0.022889     24.000000
  0.148775 -0.148775 -0.011444     24.000000
  0.137331 -0.137331  0.000000     12.000000
  0.000000  0.000000  0.160220      6.000000
 -0.011444  0.011444  0.171664     24.000000
  0.171664 -0.171664 -0.011444     24.000000
  0.160220 -0.160220  0.000000     12.000000
  0.000000  0.000000  0.183108      6.000000
  0.183108 -0.183108  0.000000     12.000000
  0.000000  0.022889  0.045777     24.000000
 -0.011444  0.034333  0.057221     48.000000
 -0.022889  0.045777  0.068666     48.000000
 -0.034333  0.057221  0.080110     48.000000
 -0.045777  0.068666  0.091554     48.000000
 -0.057221  0.080110  0.102998     48.000000
  0.125887 -0.102998 -0.080110     48.000000
  0.000000  0.022889  0.068666     24.000000
 -0.011444  0.034333  0.080110     48.000000
 -0.022889  0.045777  0.091554     48.000000
 -0.034333  0.057221  0.102998     48.000000
 -0.045777  0.068666  0.114443     48.000000
  0.137331 -0.114443 -0.068666     48.000000
  0.125887 -0.102998 -0.057221     48.000000
  0.114443 -0.091554 -0.045777     48.000000
  0.102998 -0.080110 -0.034333     48.000000
  0.091554 -0.068666 -0.022889     48.000000
  0.080110 -0.057221 -0.011444     48.000000
  0.068666 -0.045777  0.000000     24.000000
  0.000000  0.022889  0.091554     24.000000
 -0.011444  0.034333  0.102998     48.000000
 -0.022889  0.045777  0.114443     48.000000
 -0.034333  0.057221  0.125887     48.000000
  0.148775 -0.125887 -0.057221     48.000000
  0.137331 -0.114443 -0.045777     48.000000
  0.125887 -0.102998 -0.034333     48.000000
  0.114443 -0.091554 -0.022889     48.000000
  0.102998 -0.080110 -0.011444     48.000000
  0.091554 -0.068666  0.000000     24.000000
 -0.000000  0.022889  0.114443     24.000000
 -0.011444  0.034333  0.125887     48.000000
 -0.022889  0.045777  0.137331     48.000000
  0.160220 -0.137331 -0.045777     48.000000
  0.148775 -0.125887 -0.034333     48.000000
  0.137331 -0.114443 -0.022889     48.000000
  0.125887 -0.102998 -0.011444     48.000000
  0.114443 -0.091554  0.000000     24.000000
  0.000000  0.022889  0.137331     24.000000
 -0.011444  0.034333  0.148775     48.000000
  0.171664 -0.148775 -0.034333     48.000000
  0.160220 -0.137331 -0.022889     48.000000
  0.148775 -0.125887 -0.011444     48.000000
  0.137331 -0.114443  0.000000     24.000000
  0.000000  0.022889  0.160220     24.000000
  0.183108 -0.160220 -0.022889     48.000000
  0.171664 -0.148775 -0.011444     48.000000
  0.160220 -0.137331  0.000000     24.000000
  0.194553 -0.171664 -0.011444     24.000000
  0.183108 -0.160220  0.000000     24.000000
  0.000000  0.045777  0.091554     24.000000
 -0.011444  0.057221  0.102998     48.000000
 -0.022889  0.068666  0.114443     48.000000
  0.160220 -0.114443 -0.068666     48.000000
  0.148775 -0.102998 -0.057221     48.000000
  0.000000  0.045777  0.114443     24.000000
 -0.011444  0.057221  0.125887     48.000000
  0.171664 -0.125887 -0.057221     48.000000
  0.160220 -0.114443 -0.045777     48.000000
  0.148775 -0.102998 -0.034333     48.000000
  0.137331 -0.091554 -0.022889     48.000000
  0.125887 -0.080110 -0.011444     48.000000
  0.114443 -0.068666  0.000000     24.000000
  0.000000  0.045777  0.137331     24.000000
  0.183108 -0.137331 -0.045777     48.000000
  0.171664 -0.125887 -0.034333     48.000000
  0.160220 -0.114443 -0.022889     48.000000
  0.148775 -0.102998 -0.011444     48.000000
  0.137331 -0.091554 -0.000000     24.000000
  0.194553 -0.148775 -0.034333     24.000000
  0.183108 -0.137331 -0.022889     48.000000
  0.171664 -0.125887 -0.011444     48.000000
  0.160220 -0.114443  0.000000     24.000000
  0.194553 -0.148775 -0.011444     24.000000
  0.183108 -0.137331  0.000000     24.000000
  0.194553 -0.125887 -0.057221     24.000000
  0.183108 -0.114443 -0.045777     48.000000
  0.171664 -0.102998 -0.034333     48.000000
  0.194553 -0.125887 -0.034333     24.000000
  0.183108 -0.114443 -0.022889     48.000000
  0.171664 -0.102998 -0.011444     48.000000
  0.160220 -0.091554  0.000000     24.000000
  0.194553 -0.125887 -0.011444     24.000000
  0.183108 -0.114443  0.000000     24.000000
  0.194553 -0.102998 -0.011444     24.000000
 


--------------------------------------------------------------------------------------------------------




 Dimension of arrays:
   k-points           NKPTS =    165   k-points in BZ     NKDIM =    165   number of bands    NBANDS=     16
   number of dos      NEDOS =    301   number of ions     NIONS =      2
   non local maximal  LDIM  =      6   non local SUM 2l+1 LMDIM =     18
   total plane-waves  NPLWV =  21952
   max r-space proj   IRMAX =      1   max aug-charges    IRDMAX= 218927
   dimension x,y,z NGX =    28 NGY =   28 NGZ =   28
   dimension x,y,z NGXF=    56 NGYF=   56 NGZF=   56
   support grid    NGXF=   112 NGYF=  112 NGZF=  112
   ions per type =               1   1
 NGX,Y,Z   is equivalent  to a cutoff of  12.81, 12.81, 12.81 a.u.
 NGXF,Y,Z  is equivalent  to a cutoff of  25.61, 25.61, 25.61 a.u.


 I would recommend the setting:
   dimension x,y,z NGX =    27 NGY =   27 NGZ =   27
 SYSTEM =  unknown system                          
 POSCAR =  Cd1 N1                                  

 Startparameter for this run:
   NWRITE =      2    write-flag & timer
   PREC   = accura    normal or accurate (medium, high low for compatibility)
   ISTART =      0    job   : 0-new  1-cont  2-samecut
   ICHARG =      2    charge: 1-file 2-atom 10-const
   ISPIN  =      2    spin polarized calculation?
   LNONCOLLINEAR =      F non collinear calculations
   LSORBIT =      F    spin-orbit coupling
   INIWAV =      1    electr: 0-lowe 1-rand  2-diag
   LASPH  =      F    aspherical Exc in radial PAW
   METAGGA=      F    non-selfconsistent MetaGGA calc.

 Electronic Relaxation 1
   ENCUT  =  520.0 eV  38.22 Ry    6.18 a.u.   6.76  6.76  6.76*2*pi/ulx,y,z
   ENINI  =  520.0     initial cutoff
   ENAUG  =  627.1 eV  augmentation charge cutoff
   NELM   =    140;   NELMIN=  6; NELMDL= -5     # of ELM steps 
   EDIFF  = 0.1E-03   stopping-criterion for ELM
   LREAL  =      F    real-space projection
   NLSPLINE    = F    spline interpolate recip. space projectors
   LCOMPAT=      F    compatible to vasp.4.4
   GGA_COMPAT  = T    GGA compatible to vasp.4.4-vasp.4.6
   LMAXPAW     = -100 max onsite density
   LMAXMIX     =    4 max onsite mixed and CHGCAR
   VOSKOWN=      0    Vosko Wilk Nusair interpolation
   ROPT   =    0.00000   0.00000
 Ionic relaxation
   EDIFFG = -.1E-01   stopping-criterion for IOM
   NSW    =      0    number of steps for IOM
   NBLOCK =      1;   KBLOCK =      1    inner block; outer block 
   IBRION =     -1    ionic relax: 0-MD 1-quasi-New 2-CG
   NFREE  =      0    steps in history (QN), initial steepest desc. (CG)
   ISIF   =      2    stress and relaxation
   IWAVPR =     10    prediction:  0-non 1-charg 2-wave 3-comb
   ISYM   =      2    0-nonsym 1-usesym 2-fastsym
   LCORR  =      T    Harris-Foulkes like correction to forces

   POTIM  = 0.0500    time-step for ionic-motion
   TEIN   =    0.0    initial temperature
   TEBEG  =    0.0;   TEEND  =   0.0 temperature during run
   SMASS  =  -3.00    Nose mass-parameter (am)
   estimated Nose-frequenzy (Omega)   =  0.10E-29 period in steps =****** mass=  -0.302E-27a.u.
   SCALEE = 1.0000    scale energy and forces
   NPACO  =    256;   APACO  = 16.0  distance and # of slots for P.C.
   PSTRESS=    0.0 pullay stress

  Mass of Ions in am
   POMASS = 112.41 14.00
  Ionic Valenz
   ZVAL   =  12.00  5.00
  Atomic Wigner-Seitz radii
   RWIGS  =  -1.00 -1.00
  virtual crystal weights 
   VCA    =   1.00  1.00
   NELECT =      17.0000    total number of electrons
   NUPDOWN=      -1.0000    fix difference up-down

 DOS related values:
   EMIN   =  10.00;   EMAX   =-10.00  energy-range for DOS
   EFERMI =   0.00
   ISMEAR =     0;   SIGMA  =   0.05  broadening in eV -4-tet -1-fermi 0-gaus

 Electronic relaxation 2 (details)
   IALGO  =     38    algorithm
   LDIAG  =      T    sub-space diagonalisation (order eigenvalues)
   LSUBROT=      F    optimize rotation matrix (better conditioning)
   TURBO    =      0    0=normal 1=particle mesh
   IRESTART =      0    0=no restart 2=restart with 2 vectors
   NREBOOT  =      0    no. of reboots
   NMIN     =      0    reboot dimension
   EREF     =   0.00    reference energy to select bands
   IMIX   =      4    mixing-type and parameters
     AMIX     =   0.10;   BMIX     =  1.20
     AMIX_MAG =   0.40;   BMIX_MAG =  1.20
     AMIN     =   0.10
     WC   =   100.;   INIMIX=   1;  MIXPRE=   1;  MAXMIX= -45

 Intra band minimization:
   WEIMIN = 0.0000     energy-eigenvalue tresh-hold
   EBREAK =  0.16E-05  absolut break condition
   DEPER  =   0.30     relativ break condition  

   TIME   =   0.40     timestep for ELM

  volume/ion in A,a.u.               =      16.97       114.55
  Fermi-wavevector in a.u.,A,eV,Ry     =   1.300014  2.456670 22.994340  1.690036
  Thomas-Fermi vector in A             =   2.431240
 
 Write flags
   LWAVE  =      F    write WAVECAR
   LCHARG =      T    write CHGCAR
   LVTOT  =      F    write LOCPOT, total local potential
   LVHAR  =      F    write LOCPOT, Hartree potential only
   LELF   =      F    write electronic localiz. function (ELF)
   LORBIT =     11    0 simple, 1 ext, 2 COOP (PROOUT)


 Dipole corrections
   LMONO  =      F    monopole corrections only (constant potential shift)
   LDIPOL =      F    correct potential (dipole corrections)
   IDIPOL =      0    1-x, 2-y, 3-z, 4-all directions 
   EPSILON=  1.0000000 bulk dielectric constant

 LDA+U is selected, type is set to LDAUTYPE =  2
   angular momentum for each species LDAUL =     2   -1
   U (eV)           for each species LDAUU =   2.1  0.0
   J (eV)           for each species LDAUJ =   0.0  0.0
 Exchange correlation treatment:
   GGA     =    --    GGA type
   LEXCH   =     8    internal setting for exchange type
   VOSKOWN=      0    Vosko Wilk Nusair interpolation
   LHFCALC =     F    Hartree Fock is set to
   LHFONE  =     F    Hartree Fock one center treatment
   AEXX    =    0.0000 exact exchange contribution

 Linear response parameters
   LEPSILON=     F    determine dielectric tensor
   LRPA    =     F    only Hartree local field effects (RPA)
   LNABLA  =     F    use nabla operator in PAW spheres
   LVEL    =     F    velocity operator in full k-point grid
   LINTERFAST=   F  fast interpolation
   KINTER  =     0    interpolate to denser k-point grid
   CSHIFT  =0.1000    complex shift for real part using Kramers Kronig
   OMEGAMAX=  -1.0    maximum frequency
   DEG_THRESHOLD= 0.2000000E-02 threshold for treating states as degnerate
   RTIME   =    0.100 relaxation time in fs

 Orbital magnetization related:
   ORBITALMAG=     F  switch on orbital magnetization
   LCHIMAG   =     F  perturbation theory with respect to B field
   DQ        =  0.001000  dq finite difference perturbation B field



--------------------------------------------------------------------------------------------------------


 Static calculation
 charge density and potential will be updated during run
 spin polarized calculation
 Variant of blocked Davidson
 Davidson routine will perform the subspace rotation
 perform sub-space diagonalisation
    after iterative eigenvector-optimisation
 modified Broyden-mixing scheme, WC =      100.0
 initial mixing is a Kerker type mixing with AMIX =  0.1000 and BMIX =      1.2000
 Hartree-type preconditioning will be used
 using additional bands            7
 reciprocal scheme for non local part
 use partial core corrections
 calculate Harris-corrections to forces 
   (improved forces if not selfconsistent)
 use gradient corrections 
 use of overlap-Matrix (Vanderbilt PP)
 Gauss-broadening in eV      SIGMA  =   0.05


--------------------------------------------------------------------------------------------------------


  energy-cutoff  :      520.00
  volume of cell :       33.95
      direct lattice vectors                 reciprocal lattice vectors
     0.000000000  2.570000000  2.570000000    -0.194552529  0.194552529  0.194552529
     2.570000000  0.000000000  2.570000000     0.194552529 -0.194552529  0.194552529
     2.570000000  2.570000000  0.000000000     0.194552529  0.194552529 -0.194552529

  length of vectors
     3.634528855  3.634528855  3.634528855     0.336974865  0.336974865  0.336974865


 
 k-points in units of 2pi/SCALE and weight: K-Mesh                                  
   0.00000000  0.00000000  0.00000000       0.000
  -0.01144427  0.01144427  0.01144427       0.002
  -0.02288853  0.02288853  0.02288853       0.002
  -0.03433280  0.03433280  0.03433280       0.002
  -0.04577707  0.04577707  0.04577707       0.002
  -0.05722133  0.05722133  0.05722133       0.002
  -0.06866560  0.06866560  0.06866560       0.002
  -0.08010986  0.08010986  0.08010986       0.002
  -0.09155413  0.09155413  0.09155413       0.002
   0.00000000  0.00000000  0.02288853       0.001
  -0.01144427  0.01144427  0.03433280       0.005
  -0.02288853  0.02288853  0.04577707       0.005
  -0.03433280  0.03433280  0.05722133       0.005
  -0.04577707  0.04577707  0.06866560       0.005
  -0.05722133  0.05722133  0.08010986       0.005
  -0.06866560  0.06866560  0.09155413       0.005
  -0.08010986  0.08010986  0.10299840       0.005
   0.10299840 -0.10299840 -0.08010986       0.005
   0.09155413 -0.09155413 -0.06866560       0.005
   0.08010986 -0.08010986 -0.05722133       0.005
   0.06866560 -0.06866560 -0.04577707       0.005
   0.05722133 -0.05722133 -0.03433280       0.005
   0.04577707 -0.04577707 -0.02288853       0.005
   0.03433280 -0.03433280 -0.01144427       0.005
   0.02288853 -0.02288853  0.00000000       0.002
   0.00000000  0.00000000  0.04577707       0.001
  -0.01144427  0.01144427  0.05722133       0.005
  -0.02288853  0.02288853  0.06866560       0.005
  -0.03433280  0.03433280  0.08010986       0.005
  -0.04577707  0.04577707  0.09155413       0.005
  -0.05722133  0.05722133  0.10299840       0.005
  -0.06866560  0.06866560  0.11444266       0.005
   0.11444266 -0.11444266 -0.06866560       0.005
   0.10299840 -0.10299840 -0.05722133       0.005
   0.09155413 -0.09155413 -0.04577707       0.005
   0.08010986 -0.08010986 -0.03433280       0.005
   0.06866560 -0.06866560 -0.02288853       0.005
   0.05722133 -0.05722133 -0.01144427       0.005
   0.04577707 -0.04577707  0.00000000       0.002
   0.00000000  0.00000000  0.06866560       0.001
  -0.01144427  0.01144427  0.08010986       0.005
  -0.02288853  0.02288853  0.09155413       0.005
  -0.03433280  0.03433280  0.10299840       0.005
  -0.04577707  0.04577707  0.11444266       0.005
  -0.05722133  0.05722133  0.12588693       0.005
   0.12588693 -0.12588693 -0.05722133       0.005
   0.11444266 -0.11444266 -0.04577707       0.005
   0.10299840 -0.10299840 -0.03433280       0.005
   0.09155413 -0.09155413 -0.02288853       0.005
   0.08010986 -0.08010986 -0.01144427       0.005
   0.06866560 -0.06866560  0.00000000       0.002
   0.00000000  0.00000000  0.09155413       0.001
  -0.01144427  0.01144427  0.10299840       0.005
  -0.02288853  0.02288853  0.11444266       0.005
  -0.03433280  0.03433280  0.12588693       0.005
  -0.04577707  0.04577707  0.13733120       0.005
   0.13733120 -0.13733120 -0.04577707       0.005
   0.12588693 -0.12588693 -0.03433280       0.005
   0.11444266 -0.11444266 -0.02288853       0.005
   0.10299840 -0.10299840 -0.01144427       0.005
   0.09155413 -0.09155413  0.00000000       0.002
   0.00000000  0.00000000  0.11444266       0.001
  -0.01144427  0.01144427  0.12588693       0.005
  -0.02288853  0.02288853  0.13733120       0.005
  -0.03433280  0.03433280  0.14877546       0.005
   0.14877546 -0.14877546 -0.03433280       0.005
   0.13733120 -0.13733120 -0.02288853       0.005
   0.12588693 -0.12588693 -0.01144427       0.005
   0.11444266 -0.11444266  0.00000000       0.002
   0.00000000  0.00000000  0.13733120       0.001
  -0.01144427  0.01144427  0.14877546       0.005
  -0.02288853  0.02288853  0.16021973       0.005
   0.16021973 -0.16021973 -0.02288853       0.005
   0.14877546 -0.14877546 -0.01144427       0.005
   0.13733120 -0.13733120  0.00000000       0.002
   0.00000000  0.00000000  0.16021973       0.001
  -0.01144427  0.01144427  0.17166400       0.005
   0.17166400 -0.17166400 -0.01144427       0.005
   0.16021973 -0.16021973  0.00000000       0.002
   0.00000000  0.00000000  0.18310826       0.001
   0.18310826 -0.18310826  0.00000000       0.002
   0.00000000  0.02288853  0.04577707       0.005
  -0.01144427  0.03433280  0.05722133       0.010
  -0.02288853  0.04577707  0.06866560       0.010
  -0.03433280  0.05722133  0.08010986       0.010
  -0.04577707  0.06866560  0.09155413       0.010
  -0.05722133  0.08010986  0.10299840       0.010
   0.12588693 -0.10299840 -0.08010986       0.010
   0.00000000  0.02288853  0.06866560       0.005
  -0.01144427  0.03433280  0.08010986       0.010
  -0.02288853  0.04577707  0.09155413       0.010
  -0.03433280  0.05722133  0.10299840       0.010
  -0.04577707  0.06866560  0.11444266       0.010
   0.13733120 -0.11444266 -0.06866560       0.010
   0.12588693 -0.10299840 -0.05722133       0.010
   0.11444266 -0.09155413 -0.04577707       0.010
   0.10299840 -0.08010986 -0.03433280       0.010
   0.09155413 -0.06866560 -0.02288853       0.010
   0.08010986 -0.05722133 -0.01144427       0.010
   0.06866560 -0.04577707  0.00000000       0.005
   0.00000000  0.02288853  0.09155413       0.005
  -0.01144427  0.03433280  0.10299840       0.010
  -0.02288853  0.04577707  0.11444266       0.010
  -0.03433280  0.05722133  0.12588693       0.010
   0.14877546 -0.12588693 -0.05722133       0.010
   0.13733120 -0.11444266 -0.04577707       0.010
   0.12588693 -0.10299840 -0.03433280       0.010
   0.11444266 -0.09155413 -0.02288853       0.010
   0.10299840 -0.08010986 -0.01144427       0.010
   0.09155413 -0.06866560  0.00000000       0.005
  -0.00000000  0.02288853  0.11444266       0.005
  -0.01144427  0.03433280  0.12588693       0.010
  -0.02288853  0.04577707  0.13733120       0.010
   0.16021973 -0.13733120 -0.04577707       0.010
   0.14877546 -0.12588693 -0.03433280       0.010
   0.13733120 -0.11444266 -0.02288853       0.010
   0.12588693 -0.10299840 -0.01144427       0.010
   0.11444266 -0.09155413  0.00000000       0.005
   0.00000000  0.02288853  0.13733120       0.005
  -0.01144427  0.03433280  0.14877546       0.010
   0.17166400 -0.14877546 -0.03433280       0.010
   0.16021973 -0.13733120 -0.02288853       0.010
   0.14877546 -0.12588693 -0.01144427       0.010
   0.13733120 -0.11444266  0.00000000       0.005
   0.00000000  0.02288853  0.16021973       0.005
   0.18310826 -0.16021973 -0.02288853       0.010
   0.17166400 -0.14877546 -0.01144427       0.010
   0.16021973 -0.13733120  0.00000000       0.005
   0.19455253 -0.17166400 -0.01144427       0.005
   0.18310826 -0.16021973  0.00000000       0.005
   0.00000000  0.04577707  0.09155413       0.005
  -0.01144427  0.05722133  0.10299840       0.010
  -0.02288853  0.06866560  0.11444266       0.010
   0.16021973 -0.11444266 -0.06866560       0.010
   0.14877546 -0.10299840 -0.05722133       0.010
   0.00000000  0.04577707  0.11444266       0.005
  -0.01144427  0.05722133  0.12588693       0.010
   0.17166400 -0.12588693 -0.05722133       0.010
   0.16021973 -0.11444266 -0.04577707       0.010
   0.14877546 -0.10299840 -0.03433280       0.010
   0.13733120 -0.09155413 -0.02288853       0.010
   0.12588693 -0.08010986 -0.01144427       0.010
   0.11444266 -0.06866560  0.00000000       0.005
   0.00000000  0.04577707  0.13733120       0.005
   0.18310826 -0.13733120 -0.04577707       0.010
   0.17166400 -0.12588693 -0.03433280       0.010
   0.16021973 -0.11444266 -0.02288853       0.010
   0.14877546 -0.10299840 -0.01144427       0.010
   0.13733120 -0.09155413 -0.00000000       0.005
   0.19455253 -0.14877546 -0.03433280       0.005
   0.18310826 -0.13733120 -0.02288853       0.010
   0.17166400 -0.12588693 -0.01144427       0.010
   0.16021973 -0.11444266  0.00000000       0.005
   0.19455253 -0.14877546 -0.01144427       0.005
   0.18310826 -0.13733120  0.00000000       0.005
   0.19455253 -0.12588693 -0.05722133       0.005
   0.18310826 -0.11444266 -0.04577707       0.010
   0.17166400 -0.10299840 -0.03433280       0.010
   0.19455253 -0.12588693 -0.03433280       0.005
   0.18310826 -0.11444266 -0.02288853       0.010
   0.17166400 -0.10299840 -0.01144427       0.010
   0.16021973 -0.09155413  0.00000000       0.005
   0.19455253 -0.12588693 -0.01144427       0.005
   0.18310826 -0.11444266  0.00000000       0.005
   0.19455253 -0.10299840 -0.01144427       0.005
 
 k-points in reciprocal lattice and weights: K-Mesh                                  
   0.00000000  0.00000000  0.00000000       0.000
   0.05882353  0.00000000  0.00000000       0.002
   0.11764706  0.00000000  0.00000000       0.002
   0.17647059  0.00000000  0.00000000       0.002
   0.23529412  0.00000000  0.00000000       0.002
   0.29411765  0.00000000  0.00000000       0.002
   0.35294118  0.00000000  0.00000000       0.002
   0.41176471  0.00000000  0.00000000       0.002
   0.47058824  0.00000000  0.00000000       0.002
   0.05882353  0.05882353  0.00000000       0.001
   0.11764706  0.05882353  0.00000000       0.005
   0.17647059  0.05882353  0.00000000       0.005
   0.23529412  0.05882353  0.00000000       0.005
   0.29411765  0.05882353  0.00000000       0.005
   0.35294118  0.05882353  0.00000000       0.005
   0.41176471  0.05882353  0.00000000       0.005
   0.47058824  0.05882353  0.00000000       0.005
  -0.47058824  0.05882353  0.00000000       0.005
  -0.41176471  0.05882353  0.00000000       0.005
  -0.35294118  0.05882353  0.00000000       0.005
  -0.29411765  0.05882353  0.00000000       0.005
  -0.23529412  0.05882353  0.00000000       0.005
  -0.17647059  0.05882353  0.00000000       0.005
  -0.11764706  0.05882353  0.00000000       0.005
  -0.05882353  0.05882353  0.00000000       0.002
   0.11764706  0.11764706  0.00000000       0.001
   0.17647059  0.11764706  0.00000000       0.005
   0.23529412  0.11764706  0.00000000       0.005
   0.29411765  0.11764706  0.00000000       0.005
   0.35294118  0.11764706  0.00000000       0.005
   0.41176471  0.11764706  0.00000000       0.005
   0.47058824  0.11764706  0.00000000       0.005
  -0.47058824  0.11764706  0.00000000       0.005
  -0.41176471  0.11764706  0.00000000       0.005
  -0.35294118  0.11764706  0.00000000       0.005
  -0.29411765  0.11764706  0.00000000       0.005
  -0.23529412  0.11764706  0.00000000       0.005
  -0.17647059  0.11764706  0.00000000       0.005
  -0.11764706  0.11764706  0.00000000       0.002
   0.17647059  0.17647059  0.00000000       0.001
   0.23529412  0.17647059  0.00000000       0.005
   0.29411765  0.17647059  0.00000000       0.005
   0.35294118  0.17647059  0.00000000       0.005
   0.41176471  0.17647059  0.00000000       0.005
   0.47058824  0.17647059  0.00000000       0.005
  -0.47058824  0.17647059  0.00000000       0.005
  -0.41176471  0.17647059  0.00000000       0.005
  -0.35294118  0.17647059  0.00000000       0.005
  -0.29411765  0.17647059  0.00000000       0.005
  -0.23529412  0.17647059  0.00000000       0.005
  -0.17647059  0.17647059  0.00000000       0.002
   0.23529412  0.23529412  0.00000000       0.001
   0.29411765  0.23529412  0.00000000       0.005
   0.35294118  0.23529412  0.00000000       0.005
   0.41176471  0.23529412  0.00000000       0.005
   0.47058824  0.23529412  0.00000000       0.005
  -0.47058824  0.23529412  0.00000000       0.005
  -0.41176471  0.23529412  0.00000000       0.005
  -0.35294118  0.23529412  0.00000000       0.005
  -0.29411765  0.23529412  0.00000000       0.005
  -0.23529412  0.23529412  0.00000000       0.002
   0.29411765  0.29411765  0.00000000       0.001
   0.35294118  0.29411765  0.00000000       0.005
   0.41176471  0.29411765  0.00000000       0.005
   0.47058824  0.29411765  0.00000000       0.005
  -0.47058824  0.29411765  0.00000000       0.005
  -0.41176471  0.29411765  0.00000000       0.005
  -0.35294118  0.29411765  0.00000000       0.005
  -0.29411765  0.29411765  0.00000000       0.002
   0.35294118  0.35294118  0.00000000       0.001
   0.41176471  0.35294118  0.00000000       0.005
   0.47058824  0.35294118  0.00000000       0.005
  -0.47058824  0.35294118  0.00000000       0.005
  -0.41176471  0.35294118  0.00000000       0.005
  -0.35294118  0.35294118  0.00000000       0.002
   0.41176471  0.41176471  0.00000000       0.001
   0.47058824  0.41176471  0.00000000       0.005
  -0.47058824  0.41176471  0.00000000       0.005
  -0.41176471  0.41176471  0.00000000       0.002
   0.47058824  0.47058824  0.00000000       0.001
  -0.47058824  0.47058824  0.00000000       0.002
   0.17647059  0.11764706  0.05882353       0.005
   0.23529412  0.11764706  0.05882353       0.010
   0.29411765  0.11764706  0.05882353       0.010
   0.35294118  0.11764706  0.05882353       0.010
   0.41176471  0.11764706  0.05882353       0.010
   0.47058824  0.11764706  0.05882353       0.010
  -0.47058824  0.11764706  0.05882353       0.010
   0.23529412  0.17647059  0.05882353       0.005
   0.29411765  0.17647059  0.05882353       0.010
   0.35294118  0.17647059  0.05882353       0.010
   0.41176471  0.17647059  0.05882353       0.010
   0.47058824  0.17647059  0.05882353       0.010
  -0.47058824  0.17647059  0.05882353       0.010
  -0.41176471  0.17647059  0.05882353       0.010
  -0.35294118  0.17647059  0.05882353       0.010
  -0.29411765  0.17647059  0.05882353       0.010
  -0.23529412  0.17647059  0.05882353       0.010
  -0.17647059  0.17647059  0.05882353       0.010
  -0.11764706  0.17647059  0.05882353       0.005
   0.29411765  0.23529412  0.05882353       0.005
   0.35294118  0.23529412  0.05882353       0.010
   0.41176471  0.23529412  0.05882353       0.010
   0.47058824  0.23529412  0.05882353       0.010
  -0.47058824  0.23529412  0.05882353       0.010
  -0.41176471  0.23529412  0.05882353       0.010
  -0.35294118  0.23529412  0.05882353       0.010
  -0.29411765  0.23529412  0.05882353       0.010
  -0.23529412  0.23529412  0.05882353       0.010
  -0.17647059  0.23529412  0.05882353       0.005
   0.35294118  0.29411765  0.05882353       0.005
   0.41176471  0.29411765  0.05882353       0.010
   0.47058824  0.29411765  0.05882353       0.010
  -0.47058824  0.29411765  0.05882353       0.010
  -0.41176471  0.29411765  0.05882353       0.010
  -0.35294118  0.29411765  0.05882353       0.010
  -0.29411765  0.29411765  0.05882353       0.010
  -0.23529412  0.29411765  0.05882353       0.005
   0.41176471  0.35294118  0.05882353       0.005
   0.47058824  0.35294118  0.05882353       0.010
  -0.47058824  0.35294118  0.05882353       0.010
  -0.41176471  0.35294118  0.05882353       0.010
  -0.35294118  0.35294118  0.05882353       0.010
  -0.29411765  0.35294118  0.05882353       0.005
   0.47058824  0.41176471  0.05882353       0.005
  -0.47058824  0.41176471  0.05882353       0.010
  -0.41176471  0.41176471  0.05882353       0.010
  -0.35294118  0.41176471  0.05882353       0.005
  -0.47058824  0.47058824  0.05882353       0.005
  -0.41176471  0.47058824  0.05882353       0.005
   0.35294118  0.23529412  0.11764706       0.005
   0.41176471  0.23529412  0.11764706       0.010
   0.47058824  0.23529412  0.11764706       0.010
  -0.47058824  0.23529412  0.11764706       0.010
  -0.41176471  0.23529412  0.11764706       0.010
   0.41176471  0.29411765  0.11764706       0.005
   0.47058824  0.29411765  0.11764706       0.010
  -0.47058824  0.29411765  0.11764706       0.010
  -0.41176471  0.29411765  0.11764706       0.010
  -0.35294118  0.29411765  0.11764706       0.010
  -0.29411765  0.29411765  0.11764706       0.010
  -0.23529412  0.29411765  0.11764706       0.010
  -0.17647059  0.29411765  0.11764706       0.005
   0.47058824  0.35294118  0.11764706       0.005
  -0.47058824  0.35294118  0.11764706       0.010
  -0.41176471  0.35294118  0.11764706       0.010
  -0.35294118  0.35294118  0.11764706       0.010
  -0.29411765  0.35294118  0.11764706       0.010
  -0.23529412  0.35294118  0.11764706       0.005
  -0.47058824  0.41176471  0.11764706       0.005
  -0.41176471  0.41176471  0.11764706       0.010
  -0.35294118  0.41176471  0.11764706       0.010
  -0.29411765  0.41176471  0.11764706       0.005
  -0.41176471  0.47058824  0.11764706       0.005
  -0.35294118  0.47058824  0.11764706       0.005
  -0.47058824  0.35294118  0.17647059       0.005
  -0.41176471  0.35294118  0.17647059       0.010
  -0.35294118  0.35294118  0.17647059       0.010
  -0.41176471  0.41176471  0.17647059       0.005
  -0.35294118  0.41176471  0.17647059       0.010
  -0.29411765  0.41176471  0.17647059       0.010
  -0.23529412  0.41176471  0.17647059       0.005
  -0.35294118  0.47058824  0.17647059       0.005
  -0.29411765  0.47058824  0.17647059       0.005
  -0.29411765  0.47058824  0.23529412       0.005
 
 position of ions in fractional coordinates (direct lattice) 
   0.00000000  0.00000000  0.00000000
   0.25000000  0.25000000  0.25000000
 
 position of ions in cartesian coordinates  (Angst):
   0.00000000  0.00000000  0.00000000
   1.28500000  1.28500000  1.28500000
 


--------------------------------------------------------------------------------------------------------


 k-point  1 :   0.0000 0.0000 0.0000  plane waves:     941
 k-point  2 :   0.0588 0.0000 0.0000  plane waves:     917
 k-point  3 :   0.1176 0.0000 0.0000  plane waves:     914
 k-point  4 :   0.1765 0.0000 0.0000  plane waves:     917
 k-point  5 :   0.2353 0.0000 0.0000  plane waves:     917
 k-point  6 :   0.2941 0.0000 0.0000  plane waves:     911
 k-point  7 :   0.3529 0.0000 0.0000  plane waves:     920
 k-point  8 :   0.4118 0.0000 0.0000  plane waves:     917
 k-point  9 :   0.4706 0.0000 0.0000  plane waves:     908
 k-point 10 :   0.0588 0.0588 0.0000  plane waves:     925
 k-point 11 :   0.1176 0.0588 0.0000  plane waves:     921
 k-point 12 :   0.1765 0.0588 0.0000  plane waves:     913
 k-point 13 :   0.2353 0.0588 0.0000  plane waves:     915
 k-point 14 :   0.2941 0.0588 0.0000  plane waves:     913
 k-point 15 :   0.3529 0.0588 0.0000  plane waves:     914
 k-point 16 :   0.4118 0.0588 0.0000  plane waves:     914
 k-point 17 :   0.4706 0.0588 0.0000  plane waves:     909
 k-point 18 :  -0.4706 0.0588 0.0000  plane waves:     907
 k-point 19 :  -0.4118 0.0588 0.0000  plane waves:     913
 k-point 20 :  -0.3529 0.0588 0.0000  plane waves:     916
 k-point 21 :  -0.2941 0.0588 0.0000  plane waves:     912
 k-point 22 :  -0.2353 0.0588 0.0000  plane waves:     917
 k-point 23 :  -0.1765 0.0588 0.0000  plane waves:     914
 k-point 24 :  -0.1176 0.0588 0.0000  plane waves:     913
 k-point 25 :  -0.0588 0.0588 0.0000  plane waves:     917
 k-point 26 :   0.1176 0.1176 0.0000  plane waves:     917
 k-point 27 :   0.1765 0.1176 0.0000  plane waves:     913
 k-point 28 :   0.2353 0.1176 0.0000  plane waves:     915
 k-point 29 :   0.2941 0.1176 0.0000  plane waves:     912
 k-point 30 :   0.3529 0.1176 0.0000  plane waves:     915
 k-point 31 :   0.4118 0.1176 0.0000  plane waves:     911
 k-point 32 :   0.4706 0.1176 0.0000  plane waves:     909
 k-point 33 :  -0.4706 0.1176 0.0000  plane waves:     918
 k-point 34 :  -0.4118 0.1176 0.0000  plane waves:     913
 k-point 35 :  -0.3529 0.1176 0.0000  plane waves:     914
 k-point 36 :  -0.2941 0.1176 0.0000  plane waves:     912
 k-point 37 :  -0.2353 0.1176 0.0000  plane waves:     915
 k-point 38 :  -0.1765 0.1176 0.0000  plane waves:     918
 k-point 39 :  -0.1176 0.1176 0.0000  plane waves:     915
 k-point 40 :   0.1765 0.1765 0.0000  plane waves:     913
 k-point 41 :   0.2353 0.1765 0.0000  plane waves:     911
 k-point 42 :   0.2941 0.1765 0.0000  plane waves:     914
 k-point 43 :   0.3529 0.1765 0.0000  plane waves:     913
 k-point 44 :   0.4118 0.1765 0.0000  plane waves:     911
 k-point 45 :   0.4706 0.1765 0.0000  plane waves:     910
 k-point 46 :  -0.4706 0.1765 0.0000  plane waves:     919
 k-point 47 :  -0.4118 0.1765 0.0000  plane waves:     920
 k-point 48 :  -0.3529 0.1765 0.0000  plane waves:     911
 k-point 49 :  -0.2941 0.1765 0.0000  plane waves:     908
 k-point 50 :  -0.2353 0.1765 0.0000  plane waves:     912
 k-point 51 :  -0.1765 0.1765 0.0000  plane waves:     921
 k-point 52 :   0.2353 0.2353 0.0000  plane waves:     902
 k-point 53 :   0.2941 0.2353 0.0000  plane waves:     910
 k-point 54 :   0.3529 0.2353 0.0000  plane waves:     910
 k-point 55 :   0.4118 0.2353 0.0000  plane waves:     906
 k-point 56 :   0.4706 0.2353 0.0000  plane waves:     906
 k-point 57 :  -0.4706 0.2353 0.0000  plane waves:     916
 k-point 58 :  -0.4118 0.2353 0.0000  plane waves:     921
 k-point 59 :  -0.3529 0.2353 0.0000  plane waves:     913
 k-point 60 :  -0.2941 0.2353 0.0000  plane waves:     905
 k-point 61 :  -0.2353 0.2353 0.0000  plane waves:     915
 k-point 62 :   0.2941 0.2941 0.0000  plane waves:     910
 k-point 63 :   0.3529 0.2941 0.0000  plane waves:     915
 k-point 64 :   0.4118 0.2941 0.0000  plane waves:     907
 k-point 65 :   0.4706 0.2941 0.0000  plane waves:     912
 k-point 66 :  -0.4706 0.2941 0.0000  plane waves:     917
 k-point 67 :  -0.4118 0.2941 0.0000  plane waves:     917
 k-point 68 :  -0.3529 0.2941 0.0000  plane waves:     914
 k-point 69 :  -0.2941 0.2941 0.0000  plane waves:     915
 k-point 70 :   0.3529 0.3529 0.0000  plane waves:     918
 k-point 71 :   0.4118 0.3529 0.0000  plane waves:     910
 k-point 72 :   0.4706 0.3529 0.0000  plane waves:     915
 k-point 73 :  -0.4706 0.3529 0.0000  plane waves:     923
 k-point 74 :  -0.4118 0.3529 0.0000  plane waves:     919
 k-point 75 :  -0.3529 0.3529 0.0000  plane waves:     909
 k-point 76 :   0.4118 0.4118 0.0000  plane waves:     914
 k-point 77 :   0.4706 0.4118 0.0000  plane waves:     925
 k-point 78 :  -0.4706 0.4118 0.0000  plane waves:     924
 k-point 79 :  -0.4118 0.4118 0.0000  plane waves:     922
 k-point 80 :   0.4706 0.4706 0.0000  plane waves:     934
 k-point 81 :  -0.4706 0.4706 0.0000  plane waves:     928
 k-point 82 :   0.1765 0.1176 0.0588  plane waves:     913
 k-point 83 :   0.2353 0.1176 0.0588  plane waves:     914
 k-point 84 :   0.2941 0.1176 0.0588  plane waves:     919
 k-point 85 :   0.3529 0.1176 0.0588  plane waves:     914
 k-point 86 :   0.4118 0.1176 0.0588  plane waves:     910
 k-point 87 :   0.4706 0.1176 0.0588  plane waves:     910
 k-point 88 :  -0.4706 0.1176 0.0588  plane waves:     913
 k-point 89 :   0.2353 0.1765 0.0588  plane waves:     915
 k-point 90 :   0.2941 0.1765 0.0588  plane waves:     917
 k-point 91 :   0.3529 0.1765 0.0588  plane waves:     912
 k-point 92 :   0.4118 0.1765 0.0588  plane waves:     911
 k-point 93 :   0.4706 0.1765 0.0588  plane waves:     909
 k-point 94 :  -0.4706 0.1765 0.0588  plane waves:     914
 k-point 95 :  -0.4118 0.1765 0.0588  plane waves:     915
 k-point 96 :  -0.3529 0.1765 0.0588  plane waves:     910
 k-point 97 :  -0.2941 0.1765 0.0588  plane waves:     911
 k-point 98 :  -0.2353 0.1765 0.0588  plane waves:     910
 k-point 99 :  -0.1765 0.1765 0.0588  plane waves:     914
 k-point ** :  -0.1176 0.1765 0.0588  plane waves:     915
 k-point ** :   0.2941 0.2353 0.0588  plane waves:     911
 k-point ** :   0.3529 0.2353 0.0588  plane waves:     912
 k-point ** :   0.4118 0.2353 0.0588  plane waves:     904
 k-point ** :   0.4706 0.2353 0.0588  plane waves:     906
 k-point ** :  -0.4706 0.2353 0.0588  plane waves:     912
 k-point ** :  -0.4118 0.2353 0.0588  plane waves:     919
 k-point ** :  -0.3529 0.2353 0.0588  plane waves:     912
 k-point ** :  -0.2941 0.2353 0.0588  plane waves:     915
 k-point ** :  -0.2353 0.2353 0.0588  plane waves:     911
 k-point ** :  -0.1765 0.2353 0.0588  plane waves:     916
 k-point ** :   0.3529 0.2941 0.0588  plane waves:     911
 k-point ** :   0.4118 0.2941 0.0588  plane waves:     912
 k-point ** :   0.4706 0.2941 0.0588  plane waves:     914
 k-point ** :  -0.4706 0.2941 0.0588  plane waves:     912
 k-point ** :  -0.4118 0.2941 0.0588  plane waves:     915
 k-point ** :  -0.3529 0.2941 0.0588  plane waves:     915
 k-point ** :  -0.2941 0.2941 0.0588  plane waves:     913
 k-point ** :  -0.2353 0.2941 0.0588  plane waves:     912
 k-point ** :   0.4118 0.3529 0.0588  plane waves:     916
 k-point ** :   0.4706 0.3529 0.0588  plane waves:     916
 k-point ** :  -0.4706 0.3529 0.0588  plane waves:     919
 k-point ** :  -0.4118 0.3529 0.0588  plane waves:     917
 k-point ** :  -0.3529 0.3529 0.0588  plane waves:     912
 k-point ** :  -0.2941 0.3529 0.0588  plane waves:     913
 k-point ** :   0.4706 0.4118 0.0588  plane waves:     919
 k-point ** :  -0.4706 0.4118 0.0588  plane waves:     920
 k-point ** :  -0.4118 0.4118 0.0588  plane waves:     922
 k-point ** :  -0.3529 0.4118 0.0588  plane waves:     918
 k-point ** :  -0.4706 0.4706 0.0588  plane waves:     927
 k-point ** :  -0.4118 0.4706 0.0588  plane waves:     921
 k-point ** :   0.3529 0.2353 0.1176  plane waves:     918
 k-point ** :   0.4118 0.2353 0.1176  plane waves:     915
 k-point ** :   0.4706 0.2353 0.1176  plane waves:     912
 k-point ** :  -0.4706 0.2353 0.1176  plane waves:     911
 k-point ** :  -0.4118 0.2353 0.1176  plane waves:     914
 k-point ** :   0.4118 0.2941 0.1176  plane waves:     913
 k-point ** :   0.4706 0.2941 0.1176  plane waves:     915
 k-point ** :  -0.4706 0.2941 0.1176  plane waves:     914
 k-point ** :  -0.4118 0.2941 0.1176  plane waves:     914
 k-point ** :  -0.3529 0.2941 0.1176  plane waves:     918
 k-point ** :  -0.2941 0.2941 0.1176  plane waves:     918
 k-point ** :  -0.2353 0.2941 0.1176  plane waves:     908
 k-point ** :  -0.1765 0.2941 0.1176  plane waves:     916
 k-point ** :   0.4706 0.3529 0.1176  plane waves:     910
 k-point ** :  -0.4706 0.3529 0.1176  plane waves:     915
 k-point ** :  -0.4118 0.3529 0.1176  plane waves:     914
 k-point ** :  -0.3529 0.3529 0.1176  plane waves:     919
 k-point ** :  -0.2941 0.3529 0.1176  plane waves:     916
 k-point ** :  -0.2353 0.3529 0.1176  plane waves:     914
 k-point ** :  -0.4706 0.4118 0.1176  plane waves:     917
 k-point ** :  -0.4118 0.4118 0.1176  plane waves:     916
 k-point ** :  -0.3529 0.4118 0.1176  plane waves:     915
 k-point ** :  -0.2941 0.4118 0.1176  plane waves:     914
 k-point ** :  -0.4118 0.4706 0.1176  plane waves:     918
 k-point ** :  -0.3529 0.4706 0.1176  plane waves:     921
 k-point ** :  -0.4706 0.3529 0.1765  plane waves:     907
 k-point ** :  -0.4118 0.3529 0.1765  plane waves:     911
 k-point ** :  -0.3529 0.3529 0.1765  plane waves:     915
 k-point ** :  -0.4118 0.4118 0.1765  plane waves:     916
 k-point ** :  -0.3529 0.4118 0.1765  plane waves:     911
 k-point ** :  -0.2941 0.4118 0.1765  plane waves:     912
 k-point ** :  -0.2353 0.4118 0.1765  plane waves:     914
 k-point ** :  -0.3529 0.4706 0.1765  plane waves:     910
 k-point ** :  -0.2941 0.4706 0.1765  plane waves:     914
 k-point ** :  -0.2941 0.4706 0.2353  plane waves:     911

 maximum and minimum number of plane-waves per node :       163      141

 maximum number of plane-waves:       941
 maximum index in each direction: 
   IXMAX=    7   IYMAX=    6   IZMAX=    6
   IXMIN=   -7   IYMIN=   -7   IZMIN=   -6

 WARNING: aliasing errors must be expected set NGX to  30 to avoid them
 NGY is ok and might be reduce to  28
 NGZ is ok and might be reduce to  26
 aliasing errors are usually negligible using standard VASP settings
 and one can safely disregard these warnings

 parallel 3D FFT for wavefunctions:
    minimum data exchange during FFTs selected (reduces bandwidth)
 parallel 3D FFT for charge:
    minimum data exchange during FFTs selected (reduces bandwidth)


 total amount of memory used by VASP on root node    43814. kBytes
========================================================================

   base      :      30000. kBytes
   nonl-proj :       7608. kBytes
   fftplans  :       1282. kBytes
   grid      :       1092. kBytes
   one-center:         31. kBytes
   wavefun   :       3801. kBytes
 
     INWAV:  cpu time    0.0000: real time    0.0003
 Broyden mixing: mesh for mixing (old mesh)
   NGX = 13   NGY = 13   NGZ = 13
  (NGX  = 56   NGY  = 56   NGZ  = 56)
  gives a total of   2197 points

 initial charge density was supplied:
 charge density of overlapping atoms calculated
 number of electron      17.0000000 magnetization       2.0000000
 keeping initial charge density in first step


--------------------------------------------------------------------------------------------------------


 Maximum index for augmentation-charges         9866 (set IRDMAX)


--------------------------------------------------------------------------------------------------------


 First call to EWALD:  gamma=   0.547
 Maximum number of real-space cells 3x 3x 3
 Maximum number of reciprocal cells 3x 3x 3

 FEWALD executed in parallel
    FEWALD:  cpu time    0.0030: real time    0.0061


----------------------------------------- Iteration    1(   1)  ---------------------------------------


    POTLOK:  cpu time    0.0180: real time    0.0300
    SETDIJ:  cpu time    0.0450: real time    0.0516
     EDDAV:  cpu time    1.8677: real time    2.0079
       DOS:  cpu time    0.0050: real time    0.0108
    --------------------------------------------
      LOOP:  cpu time    1.9397: real time    2.1163

 eigenvalue-minimisations  : 11040
 total energy-change (2. order) : 0.1031727E+03  (-0.9026965E+03)
 number of electron      17.0000000 magnetization       2.0000000
 augmentation part       17.0000000 magnetization       2.0000000

 Free energy of the ion-electron system (eV)
  ---------------------------------------------------
  alpha Z        PSCENC =       103.68756211
  Ewald energy   TEWEN  =     -1220.16346469
  -Hartree energ DENC   =      -412.13599042
  -exchange      EXHF   =         0.00000000
  -V(xc)+E(xc)   XCENC  =        24.79762412
  PAW double counting   =      1401.39643115    -1359.17192817
  entropy T*S    EENTRO =        -0.00095329
  eigenvalues    EBANDS =         7.05211564
  atomic energy  EATOM  =      1557.71132106
  Solvation  Ediel_sol  =         0.00000000
  ---------------------------------------------------
  free energy    TOTEN  =       103.17271752 eV

  energy without entropy =      103.17367081  energy(sigma->0) =      103.17319416


--------------------------------------------------------------------------------------------------------




----------------------------------------- Iteration    1(   2)  ---------------------------------------


     EDDAV:  cpu time    2.0327: real time    2.0484
       DOS:  cpu time    0.0040: real time    0.0036
    --------------------------------------------
      LOOP:  cpu time    2.0397: real time    2.0623

 eigenvalue-minimisations  : 12616
 total energy-change (2. order) :-0.1071107E+03  (-0.9891730E+02)
 number of electron      17.0000000 magnetization       2.0000000
 augmentation part       17.0000000 magnetization       2.0000000

 Free energy of the ion-electron system (eV)
  ---------------------------------------------------
  alpha Z        PSCENC =       103.68756211
  Ewald energy   TEWEN  =     -1220.16346469
  -Hartree energ DENC   =      -412.13599042
  -exchange      EXHF   =         0.00000000
  -V(xc)+E(xc)   XCENC  =        24.79762412
  PAW double counting   =      1401.39643115    -1359.17192817
  entropy T*S    EENTRO =        -0.00183107
  eigenvalues    EBANDS =      -100.05768066
  atomic energy  EATOM  =      1557.71132106
  Solvation  Ediel_sol  =         0.00000000
  ---------------------------------------------------
  free energy    TOTEN  =        -3.93795656 eV

  energy without entropy =       -3.93612549  energy(sigma->0) =       -3.93704102


--------------------------------------------------------------------------------------------------------




----------------------------------------- Iteration    1(   3)  ---------------------------------------


     EDDAV:  cpu time    2.0067: real time    2.0112
       DOS:  cpu time    0.0040: real time    0.0039
    --------------------------------------------
      LOOP:  cpu time    2.0117: real time    2.0264

 eigenvalue-minimisations  : 12336
 total energy-change (2. order) :-0.3599253E+01  (-0.3584029E+01)
 number of electron      17.0000000 magnetization       2.0000000
 augmentation part       17.0000000 magnetization       2.0000000

 Free energy of the ion-electron system (eV)
  ---------------------------------------------------
  alpha Z        PSCENC =       103.68756211
  Ewald energy   TEWEN  =     -1220.16346469
  -Hartree energ DENC   =      -412.13599042
  -exchange      EXHF   =         0.00000000
  -V(xc)+E(xc)   XCENC  =        24.79762412
  PAW double counting   =      1401.39643115    -1359.17192817
  entropy T*S    EENTRO =        -0.00134648
  eigenvalues    EBANDS =      -103.65741778
  atomic energy  EATOM  =      1557.71132106
  Solvation  Ediel_sol  =         0.00000000
  ---------------------------------------------------
  free energy    TOTEN  =        -7.53720908 eV

  energy without entropy =       -7.53586261  energy(sigma->0) =       -7.53653585


--------------------------------------------------------------------------------------------------------




----------------------------------------- Iteration    1(   4)  ---------------------------------------


     EDDAV:  cpu time    2.1527: real time    2.1618
       DOS:  cpu time    0.0040: real time    0.0038
    --------------------------------------------
      LOOP:  cpu time    2.1597: real time    2.1819

 eigenvalue-minimisations  : 13344
 total energy-change (2. order) :-0.1090466E-01  (-0.1090425E-01)
 number of electron      17.0000000 magnetization       2.0000000
 augmentation part       17.0000000 magnetization       2.0000000

 Free energy of the ion-electron system (eV)
  ---------------------------------------------------
  alpha Z        PSCENC =       103.68756211
  Ewald energy   TEWEN  =     -1220.16346469
  -Hartree energ DENC   =      -412.13599042
  -exchange      EXHF   =         0.00000000
  -V(xc)+E(xc)   XCENC  =        24.79762412
  PAW double counting   =      1401.39643115    -1359.17192817
  entropy T*S    EENTRO =        -0.00134679
  eigenvalues    EBANDS =      -103.66832213
  atomic energy  EATOM  =      1557.71132106
  Solvation  Ediel_sol  =         0.00000000
  ---------------------------------------------------
  free energy    TOTEN  =        -7.54811375 eV

  energy without entropy =       -7.54676696  energy(sigma->0) =       -7.54744035


--------------------------------------------------------------------------------------------------------




----------------------------------------- Iteration    1(   5)  ---------------------------------------


     EDDAV:  cpu time    2.0427: real time    2.0511
       DOS:  cpu time    0.0030: real time    0.0035
    CHARGE:  cpu time    0.1090: real time    0.1170
    MIXING:  cpu time    0.0020: real time    0.0066
    --------------------------------------------
      LOOP:  cpu time    2.1597: real time    2.1874

 eigenvalue-minimisations  : 12568
 total energy-change (2. order) :-0.4537136E-04  (-0.4537121E-04)
 number of electron      17.0000000 magnetization       1.6972504
 augmentation part        5.9222199 magnetization       0.9452171

 Broyden mixing:
  rms(total) = 0.11589E+01    rms(broyden)= 0.11588E+01
  rms(prec ) = 0.24658E+01
  weight for this iteration     100.00

 Free energy of the ion-electron system (eV)
  ---------------------------------------------------
  alpha Z        PSCENC =       103.68756211
  Ewald energy   TEWEN  =     -1220.16346469
  -Hartree energ DENC   =      -412.13599042
  -exchange      EXHF   =         0.00000000
  -V(xc)+E(xc)   XCENC  =        24.79762412
  PAW double counting   =      1401.39643115    -1359.17192817
  entropy T*S    EENTRO =        -0.00134678
  eigenvalues    EBANDS =      -103.66836751
  atomic energy  EATOM  =      1557.71132106
  Solvation  Ediel_sol  =         0.00000000
  ---------------------------------------------------
  free energy    TOTEN  =        -7.54815912 eV

  energy without entropy =       -7.54681234  energy(sigma->0) =       -7.54748573


--------------------------------------------------------------------------------------------------------




----------------------------------------- Iteration    1(   6)  ---------------------------------------


    POTLOK:  cpu time    0.0150: real time    0.0150
    SETDIJ:  cpu time    0.0320: real time    0.0323
     EDDAV:  cpu time    2.4616: real time    2.4656
       DOS:  cpu time    0.0040: real time    0.0038
    CHARGE:  cpu time    0.1050: real time    0.1054
    MIXING:  cpu time    0.0030: real time    0.0146
    --------------------------------------------
      LOOP:  cpu time    2.6216: real time    2.6468

 eigenvalue-minimisations  : 16016
 total energy-change (2. order) : 0.6357500E+00  (-0.3332438E-01)
 number of electron      17.0000000 magnetization       1.0838657
 augmentation part        5.9403652 magnetization       0.3075540

 Broyden mixing:
  rms(total) = 0.10124E+01    rms(broyden)= 0.10124E+01
  rms(prec ) = 0.17696E+01
  weight for this iteration     100.00

 eigenvalues of (default mixing * dielectric matrix)
  average eigenvalue GAMMA=   3.0939
  3.0939

 Free energy of the ion-electron system (eV)
  ---------------------------------------------------
  alpha Z        PSCENC =       103.68756211
  Ewald energy   TEWEN  =     -1220.16346469
  -Hartree energ DENC   =      -412.79454830
  -exchange      EXHF   =         0.00000000
  -V(xc)+E(xc)   XCENC  =        24.90565523
  PAW double counting   =      1427.03097805    -1384.58290455
  entropy T*S    EENTRO =        -0.00131331
  eigenvalues    EBANDS =      -102.70569472
  atomic energy  EATOM  =      1557.71132106
  Solvation  Ediel_sol  =         0.00000000
  ---------------------------------------------------
  free energy    TOTEN  =        -6.91240911 eV

  energy without entropy =       -6.91109580  energy(sigma->0) =       -6.91175246


--------------------------------------------------------------------------------------------------------




----------------------------------------- Iteration    1(   7)  ---------------------------------------


    POTLOK:  cpu time    0.0150: real time    0.0150
    SETDIJ:  cpu time    0.0320: real time    0.0323
     EDDAV:  cpu time    2.1487: real time    2.1535
       DOS:  cpu time    0.0040: real time    0.0037
    CHARGE:  cpu time    0.1040: real time    0.1045
    MIXING:  cpu time    0.0020: real time    0.0051
    --------------------------------------------
      LOOP:  cpu time    2.3086: real time    2.3264

 eigenvalue-minimisations  : 13520
 total energy-change (2. order) : 0.4616737E+00  (-0.1215082E+00)
 number of electron      17.0000000 magnetization       0.8630959
 augmentation part        5.9464113 magnetization       0.1315743

 Broyden mixing:
  rms(total) = 0.78940E+00    rms(broyden)= 0.78937E+00
  rms(prec ) = 0.83661E+00
  weight for this iteration     100.00

 eigenvalues of (default mixing * dielectric matrix)
  average eigenvalue GAMMA=   2.8447
  2.8447  2.8447

 Free energy of the ion-electron system (eV)
  ---------------------------------------------------
  alpha Z        PSCENC =       103.68756211
  Ewald energy   TEWEN  =     -1220.16346469
  -Hartree energ DENC   =      -414.97460879
  -exchange      EXHF   =         0.00000000
  -V(xc)+E(xc)   XCENC  =        25.18375677
  PAW double counting   =      1502.00737019    -1459.05052948
  entropy T*S    EENTRO =        -0.00146171
  eigenvalues    EBANDS =      -100.85068086
  atomic energy  EATOM  =      1557.71132106
  Solvation  Ediel_sol  =         0.00000000
  ---------------------------------------------------
  free energy    TOTEN  =        -6.45073538 eV

  energy without entropy =       -6.44927368  energy(sigma->0) =       -6.45000453


--------------------------------------------------------------------------------------------------------




----------------------------------------- Iteration    1(   8)  ---------------------------------------


    POTLOK:  cpu time    0.0150: real time    0.0151
    SETDIJ:  cpu time    0.0330: real time    0.0326
     EDDAV:  cpu time    1.9697: real time    1.9732
       DOS:  cpu time    0.0040: real time    0.0040
    CHARGE:  cpu time    0.1040: real time    0.1046
    MIXING:  cpu time    0.0010: real time    0.0009
    --------------------------------------------
      LOOP:  cpu time    2.1277: real time    2.1406

 eigenvalue-minimisations  : 12048
 total energy-change (2. order) :-0.1051035E-01  (-0.1438355E-01)
 number of electron      17.0000000 magnetization       0.7134528
 augmentation part        5.9289109 magnetization       0.0209123

 Broyden mixing:
  rms(total) = 0.42302E+00    rms(broyden)= 0.42301E+00
  rms(prec ) = 0.45928E+00
  weight for this iteration     100.00

 eigenvalues of (default mixing * dielectric matrix)
  average eigenvalue GAMMA=   3.8176
  7.4396  0.9380  3.0751

 Free energy of the ion-electron system (eV)
  ---------------------------------------------------
  alpha Z        PSCENC =       103.68756211
  Ewald energy   TEWEN  =     -1220.16346469
  -Hartree energ DENC   =      -416.10711795
  -exchange      EXHF   =         0.00000000
  -V(xc)+E(xc)   XCENC  =        25.20587012
  PAW double counting   =      1584.72483352    -1541.67223108
  entropy T*S    EENTRO =        -0.00162510
  eigenvalues    EBANDS =       -99.84639373
  atomic energy  EATOM  =      1557.71132106
  Solvation  Ediel_sol  =         0.00000000
  ---------------------------------------------------
  free energy    TOTEN  =        -6.46124573 eV

  energy without entropy =       -6.45962063  energy(sigma->0) =       -6.46043318


--------------------------------------------------------------------------------------------------------




----------------------------------------- Iteration    1(   9)  ---------------------------------------


    POTLOK:  cpu time    0.0150: real time    0.0151
    SETDIJ:  cpu time    0.0320: real time    0.0325
     EDDAV:  cpu time    2.0237: real time    2.0279
       DOS:  cpu time    0.0040: real time    0.0039
    CHARGE:  cpu time    0.1050: real time    0.1050
    MIXING:  cpu time    0.0010: real time    0.0036
    --------------------------------------------
      LOOP:  cpu time    2.1847: real time    2.2013

 eigenvalue-minimisations  : 12448
[...]
     15      18.5126      0.00000
     16      20.6695      0.00000

 k-point   157 :      -0.4118    0.3529    0.1765
  band No.  band energies     occupation 
      1     -11.7718      1.00000
      2      -7.3091      1.00000
      3      -7.2216      1.00000
      4      -6.9723      1.00000
      5      -6.8761      1.00000
      6      -6.0484      1.00000
      7      -2.0859      1.00000
      8      -0.5602      1.00000
      9       0.3182      1.00000
     10       7.0243      0.00000
     11       8.4288      0.00000
     12       9.7996      0.00000
     13      11.9322      0.00000
     14      15.3284      0.00000
     15      18.0661      0.00000
     16      20.9504      0.00000

 k-point   158 :      -0.3529    0.3529    0.1765
  band No.  band energies     occupation 
      1     -11.7589      1.00000
      2      -7.3188      1.00000
      3      -7.1974      1.00000
      4      -6.9511      1.00000
      5      -6.8865      1.00000
      6      -5.9286      1.00000
      7      -2.2159      1.00000
      8      -0.6475      1.00000
      9       0.2047      1.00000
     10       7.4184      0.00000
     11       8.1259      0.00000
     12       9.8909      0.00000
     13      11.7411      0.00000
     14      15.5811      0.00000
     15      17.8009      0.00000
     16      21.2189      0.00000

 k-point   159 :      -0.4118    0.4118    0.1765
  band No.  band energies     occupation 
      1     -11.7579      1.00000
      2      -7.3098      1.00000
      3      -7.1995      1.00000
      4      -6.9608      1.00000
      5      -6.8572      1.00000
      6      -6.0372      1.00000
      7      -2.0031      1.00000
      8      -0.5439      1.00000
      9       0.0366      1.00000
     10       6.8089      0.00000
     11       8.5836      0.00000
     12      10.0341      0.00000
     13      11.7473      0.00000
     14      14.8529      0.00000
     15      18.8644      0.00000
     16      20.6334      0.00000

 k-point   160 :      -0.3529    0.4118    0.1765
  band No.  band energies     occupation 
      1     -11.7460      1.00000
      2      -7.3082      1.00000
      3      -7.1886      1.00000
      4      -6.9385      1.00000
      5      -6.8765      1.00000
      6      -5.9093      1.00000
      7      -2.0671      1.00000
      8      -0.7082      1.00000
      9      -0.0944      1.00000
     10       7.1854      0.00000
     11       8.4994      0.00000
     12      10.0440      0.00000
     13      11.3809      0.00000
     14      15.2960      0.00000
     15      18.3448      0.00000
     16      20.8520      0.00000

 k-point   161 :      -0.2941    0.4118    0.1765
  band No.  band energies     occupation 
      1     -11.7444      1.00000
      2      -7.3087      1.00000
      3      -7.1850      1.00000
      4      -6.9271      1.00000
      5      -6.8960      1.00000
      6      -5.8653      1.00000
      7      -2.0910      1.00000
      8      -0.8055      1.00000
      9      -0.0675      1.00000
     10       7.4297      0.00000
     11       8.3836      0.00000
     12       9.9711      0.00000
     13      11.3151      0.00000
     14      15.5958      0.00000
     15      17.9325      0.00000
     16      21.1016      0.00000

 k-point   162 :      -0.2353    0.4118    0.1765
  band No.  band energies     occupation 
      1     -11.7532      1.00000
      2      -7.3069      1.00000
      3      -7.2007      1.00000
      4      -6.9289      1.00000
      5      -6.9040      1.00000
      6      -5.9185      1.00000
      7      -2.0898      1.00000
      8      -0.7720      1.00000
      9       0.0921      1.00000
     10       7.3848      0.00000
     11       8.3558      0.00000
     12       9.8054      0.00000
     13      11.5777      0.00000
     14      15.6396      0.00000
     15      17.7823      0.00000
     16      21.2285      0.00000

 k-point   163 :      -0.3529    0.4706    0.1765
  band No.  band energies     occupation 
      1     -11.7380      1.00000
      2      -7.3236      1.00000
      3      -7.1576      1.00000
      4      -6.9355      1.00000
      5      -6.8543      1.00000
      6      -5.9210      1.00000
      7      -2.0252      1.00000
      8      -0.6089      1.00000
      9      -0.2960      1.00000
     10       6.8823      0.00000
     11       8.5968      0.00000
     12      10.4319      0.00000
     13      11.2164      0.00000
     14      14.8659      0.00000
     15      19.1425      0.00000
     16      20.4217      0.00000

 k-point   164 :      -0.2941    0.4706    0.1765
  band No.  band energies     occupation 
      1     -11.7372      1.00000
      2      -7.3110      1.00000
      3      -7.1717      1.00000
      4      -6.9314      1.00000
      5      -6.8730      1.00000
      6      -5.8616      1.00000
      7      -2.0323      1.00000
      8      -0.7527      1.00000
      9      -0.2744      1.00000
     10       7.2006      0.00000
     11       8.5713      0.00000
     12      10.3247      0.00000
     13      10.9769      0.00000
     14      15.3017      0.00000
     15      18.4811      0.00000
     16      20.6952      0.00000

 k-point   165 :      -0.2941    0.4706    0.2353
  band No.  band energies     occupation 
      1     -11.7380      1.00000
      2      -7.2986      1.00000
      3      -7.1893      1.00000
      4      -6.9239      1.00000
      5      -6.8855      1.00000
      6      -5.8451      1.00000
      7      -2.0287      1.00000
      8      -0.7463      1.00000
      9      -0.3213      1.00000
     10       7.3753      0.00000
     11       8.5930      0.00000
     12      10.1970      0.00000
     13      10.8539      0.00000
     14      15.6857      0.00000
     15      17.9864      0.00000
     16      20.8750      0.00000


--------------------------------------------------------------------------------------------------------


 soft charge-density along one line, spin component           1
         0         1         2         3         4         5         6         7         8         9
 total charge-density along one line
 
 soft charge-density along one line, spin component           2
         0         1         2         3         4         5         6         7         8         9
 total charge-density along one line
 
 pseudopotential strength for first ion, spin component:           1
-19.053   0.000   0.000   0.000   0.000 -19.092   0.000   0.000
  0.000 -19.053  -0.000   0.000   0.000   0.000 -19.092  -0.000
  0.000  -0.000 -19.031  -0.000  -0.000   0.000  -0.000 -19.071
  0.000   0.000  -0.000 -19.053  -0.000   0.000   0.000  -0.000
  0.000   0.000  -0.000  -0.000 -19.031   0.000   0.000  -0.000
-19.092   0.000   0.000   0.000   0.000 -19.117   0.000   0.000
  0.000 -19.092  -0.000   0.000   0.000   0.000 -19.117  -0.000
  0.000  -0.000 -19.071  -0.000  -0.000   0.000  -0.000 -19.096
  0.000   0.000  -0.000 -19.092  -0.000   0.000   0.000  -0.000
  0.000   0.000  -0.000  -0.000 -19.071   0.000   0.000  -0.000
  0.000   0.000   0.000   0.000  -0.000   0.000   0.000   0.000
  0.000   0.000   0.000   0.000  -0.000   0.000   0.000   0.000
  0.000   0.000  -0.000  -0.006  -0.000   0.000   0.000  -0.000
 -0.006   0.000   0.000   0.000  -0.000  -0.006   0.000   0.000
  0.000  -0.006  -0.000   0.000   0.000   0.000  -0.006  -0.000
  0.000   0.000  -0.000  -0.006  -0.000   0.000   0.000  -0.000
 -0.006   0.000   0.000   0.000  -0.000  -0.005   0.000   0.000
  0.000  -0.006  -0.000   0.000   0.000   0.000  -0.005  -0.000
 pseudopotential strength for first ion, spin component:           2
-18.970   0.000   0.000   0.000   0.000 -19.010   0.000   0.000
  0.000 -18.970  -0.000   0.000   0.000   0.000 -19.010  -0.000
  0.000  -0.000 -18.990  -0.000  -0.000   0.000  -0.000 -19.031
  0.000   0.000  -0.000 -18.970  -0.000   0.000   0.000  -0.000
  0.000   0.000  -0.000  -0.000 -18.990   0.000   0.000  -0.000
-19.010   0.000   0.000   0.000   0.000 -19.036   0.000   0.000
  0.000 -19.010  -0.000   0.000   0.000   0.000 -19.036  -0.000
  0.000  -0.000 -19.031  -0.000  -0.000   0.000  -0.000 -19.057
  0.000   0.000  -0.000 -19.010  -0.000   0.000   0.000  -0.000
  0.000   0.000  -0.000  -0.000 -19.031   0.000   0.000  -0.000
  0.000   0.000   0.000   0.000  -0.000   0.000   0.000   0.000
  0.000   0.000   0.000   0.000  -0.000   0.000   0.000   0.000
  0.000   0.000   0.000  -0.009   0.000   0.000   0.000   0.000
 -0.009   0.000  -0.000   0.000  -0.000  -0.008   0.000  -0.000
  0.000  -0.009   0.000   0.000  -0.000   0.000  -0.008   0.000
  0.000   0.000   0.000  -0.009   0.000   0.000   0.000   0.000
 -0.009   0.000  -0.000   0.000  -0.000  -0.008   0.000  -0.000
  0.000  -0.009   0.000   0.000  -0.000   0.000  -0.008   0.000
 total augmentation occupancy for first ion, spin component:           1
  5.789   0.000   0.000  -0.000  -0.000  -3.906  -0.000   0.000   0.000  -0.000  -0.000  -0.000   0.000  -0.723  -0.000   0.000
  0.000   5.789   0.000   0.000  -0.000   0.000  -3.906  -0.000   0.000  -0.000   0.000   0.000  -0.000   0.000  -0.723   0.000
  0.000   0.000   3.257  -0.000   0.000   0.000  -0.000  -1.392  -0.000   0.000   0.000  -0.000  -0.000   0.000   0.000  -0.000
 -0.000   0.000   0.000   5.789   0.000   0.000   0.000  -0.000  -3.906   0.000   0.000   0.000  -0.723  -0.000   0.000   0.153
  0.000  -0.000   0.000  -0.000   3.257   0.000   0.000   0.000  -0.000  -1.392   0.000   0.000   0.000   0.000   0.000   0.000
 -3.906   0.000  -0.000   0.000  -0.000   4.025  -0.000  -0.000   0.000  -0.000   0.000  -0.000   0.000   0.716   0.000  -0.000
 -0.000  -3.906   0.000   0.000   0.000  -0.000   4.025   0.000   0.000   0.000  -0.000   0.000  -0.000   0.000   0.716   0.000
  0.000   0.000  -1.392   0.000   0.000   0.000   0.000   1.544   0.000   0.000  -0.000   0.000   0.000   0.000  -0.000  -0.000
  0.000   0.000   0.000  -3.906   0.000   0.000   0.000   0.000   4.025   0.000   0.000   0.000   0.716  -0.000   0.000  -0.184
  0.000  -0.000   0.000   0.000  -1.392  -0.000   0.000   0.000   0.000   1.544   0.000   0.000   0.000   0.000   0.000   0.000
 -0.000   0.000   0.000   0.000   0.000   0.000   0.000  -0.000   0.000   0.000   3.728  -1.224   0.000   0.000  -0.000   0.000
  0.000   0.000  -0.000   0.000   0.000   0.000  -0.000   0.000   0.000   0.000  -1.224   0.460   0.000   0.000   0.000   0.000
  0.000  -0.000   0.000  -0.723   0.000  -0.000   0.000   0.000   0.716   0.000   0.000   0.000   0.266  -0.000   0.000  -0.065
 -0.723   0.000   0.000  -0.000   0.000   0.716  -0.000  -0.000   0.000   0.000   0.000   0.000   0.000   0.266   0.000   0.000
  0.000  -0.723  -0.000   0.000   0.000   0.000   0.716   0.000  -0.000  -0.000   0.000   0.000   0.000  -0.000   0.266   0.000
  0.000  -0.000  -0.000   0.153  -0.000   0.000   0.000  -0.000  -0.184  -0.000   0.000  -0.000  -0.065   0.000   0.000   0.019
  0.153   0.000   0.000   0.000  -0.000  -0.184   0.000  -0.000   0.000  -0.000   0.000  -0.000  -0.000  -0.065  -0.000   0.000
  0.000   0.153  -0.000   0.000   0.000   0.000  -0.184  -0.000   0.000  -0.000   0.000   0.000   0.000  -0.000  -0.065   0.000
 total augmentation occupancy for first ion, spin component:           2
  1.190   0.000  -0.000   0.000   0.000  -1.033  -0.000   0.000  -0.000  -0.000  -0.000   0.000   0.000  -0.149   0.000   0.000
  0.000   1.190   0.000   0.000   0.000  -0.000  -1.033  -0.000   0.000   0.000  -0.000   0.000  -0.000   0.000  -0.149   0.000
  0.000   0.000   0.268   0.000   0.000   0.000   0.000  -0.214   0.000   0.000   0.000  -0.000  -0.000  -0.000  -0.000   0.000
 -0.000  -0.000  -0.000   1.190  -0.000  -0.000   0.000  -0.000  -1.033  -0.000   0.000   0.000  -0.149   0.000  -0.000   0.025
 -0.000  -0.000   0.000  -0.000   0.268  -0.000  -0.000   0.000   0.000  -0.214   0.000   0.000  -0.000   0.000   0.000  -0.000
 -1.033   0.000   0.000   0.000  -0.000   0.892   0.000  -0.000   0.000  -0.000   0.000   0.000  -0.000   0.132   0.000   0.000
 -0.000  -1.033   0.000   0.000  -0.000   0.000   0.892  -0.000   0.000   0.000   0.000   0.000  -0.000  -0.000   0.132  -0.000
 -0.000  -0.000  -0.214   0.000  -0.000   0.000   0.000   0.165  -0.000   0.000  -0.000   0.000   0.000   0.000  -0.000  -0.000
  0.000   0.000  -0.000  -1.033  -0.000  -0.000   0.000   0.000   0.892   0.000  -0.000   0.000   0.132   0.000   0.000  -0.024
  0.000   0.000   0.000   0.000  -0.214  -0.000  -0.000   0.000   0.000   0.165   0.000   0.000   0.000  -0.000  -0.000  -0.000
 -0.000  -0.000   0.000   0.000   0.000   0.000   0.000  -0.000  -0.000   0.000   0.010  -0.034   0.000   0.000   0.000   0.000
  0.000   0.000  -0.000   0.000  -0.000   0.000   0.000   0.000   0.000   0.000  -0.034   0.015   0.000   0.000   0.000   0.000
  0.000  -0.000   0.000  -0.149   0.000   0.000   0.000  -0.000   0.132   0.000   0.000   0.000   0.019   0.000   0.000  -0.005
 -0.149   0.000  -0.000   0.000   0.000   0.132  -0.000   0.000  -0.000   0.000   0.000   0.000   0.000   0.019  -0.000   0.000
  0.000  -0.149   0.000  -0.000   0.000  -0.000   0.132  -0.000  -0.000   0.000   0.000   0.000  -0.000  -0.000   0.019   0.000
 -0.000  -0.000  -0.000   0.025   0.000  -0.000  -0.000   0.000  -0.024   0.000   0.000   0.000  -0.005   0.000   0.000   0.001
  0.025   0.000   0.000   0.000   0.000  -0.024   0.000   0.000   0.000   0.000   0.000   0.000   0.000  -0.005   0.000   0.000
 -0.000   0.025  -0.000  -0.000  -0.000   0.000  -0.024   0.000   0.000   0.000   0.000   0.000   0.000   0.000  -0.005   0.000


------------------------ aborting loop because EDIFF is reached ----------------------------------------


 


 total charge     
 
# of ion     s       p       d       tot
----------------------------------------
  1        0.434   0.336   9.644  10.414
  2        1.285   2.228   0.000   3.513
------------------------------------------------
tot        1.719   2.564   9.644  13.927
 


 magnetization (x)
 
# of ion     s       p       d       tot
----------------------------------------
  1       -0.022   0.024   0.068   0.069
  2        0.013   0.515   0.000   0.528
------------------------------------------------
tot       -0.009   0.538   0.068   0.597
 
    CHARGE:  cpu time    0.1050: real time    0.1052
    FORLOC:  cpu time    0.0020: real time    0.0033
    FORNL :  cpu time    0.2390: real time    0.2420
    STRESS:  cpu time    0.7949: real time    0.8014
    FORCOR:  cpu time    0.0150: real time    0.0165
    FORHAR:  cpu time    0.0030: real time    0.0047
    MIXING:  cpu time    0.0000: real time    0.0007
    OFIELD:  cpu time    0.0010: real time    0.0039

  FORCE on cell =-STRESS in cart. coord.  units (eV):
  Direction    XX          YY          ZZ          XY          YZ          ZX
  --------------------------------------------------------------------------------------
  Alpha Z   103.68756   103.68756   103.68756
  Ewald    -406.72129  -406.72129  -406.72129    -0.00000     0.00000     0.00000
  Hartree   138.74176   138.74176   138.74176     0.00000     0.00000     0.00000
  E(xc)     -84.52219   -84.52219   -84.52219    -0.00000    -0.00000    -0.00000
  Local      64.38424    64.38424    64.38424     0.00001     0.00001     0.00001
  n-local   -96.28356   -96.10776   -95.21321    -0.61703     0.61676    -0.51446
  augment    33.20085    33.20085    33.20085    -0.00004    -0.00004    -0.00004
  Kinetic   248.07477   245.76222   247.55074    -0.76865     0.35504     0.30028
  Fock        0.00000     0.00000     0.00000     0.00000     0.00000     0.00000
  -------------------------------------------------------------------------------------
  Total       0.03199     0.03199     0.03199     0.00000     0.00000     0.00000
  in kB       1.50981     1.50981     1.50981     0.00000     0.00000     0.00000
  external pressure =        1.51 kB  Pullay stress =        0.00 kB


 VOLUME and BASIS-vectors are now :
 -----------------------------------------------------------------------------
  energy-cutoff  :      520.00
  volume of cell :       33.95
      direct lattice vectors                 reciprocal lattice vectors
     0.000000000  2.570000000  2.570000000    -0.194552529  0.194552529  0.194552529
     2.570000000  0.000000000  2.570000000     0.194552529 -0.194552529  0.194552529
     2.570000000  2.570000000  0.000000000     0.194552529  0.194552529 -0.194552529

  length of vectors
     3.634528855  3.634528855  3.634528855     0.336974865  0.336974865  0.336974865


 FORCES acting on ions
    electron-ion (+dipol)            ewald-force                    non-local-force                 convergence-correction
 -----------------------------------------------------------------------------------------------
   -.964E-08 -.964E-08 -.629E-08   -.182E-13 -.107E-13 -.514E-14   0.416E-16 0.416E-16 0.312E-16   0.557E-06 0.557E-06 0.557E-06
   -.389E-07 -.389E-07 -.204E-07   0.188E-13 0.110E-13 0.631E-14   0.278E-16 0.173E-16 0.191E-16   -.118E-06 -.118E-06 -.118E-06
 -----------------------------------------------------------------------------------------------
   -.485E-07 -.485E-07 -.267E-07   0.693E-15 0.273E-15 0.116E-14   0.694E-16 0.590E-16 0.503E-16   0.439E-06 0.439E-06 0.439E-06
 
 
 POSITION                                       TOTAL-FORCE (eV/Angst)
 -----------------------------------------------------------------------------------
      0.00000      0.00000      0.00000        -0.000000     -0.000000      0.000000
      1.28500      1.28500      1.28500         0.000000      0.000000     -0.000000
 -----------------------------------------------------------------------------------
    total drift:                                0.000000      0.000000      0.000000


--------------------------------------------------------------------------------------------------------



  FREE ENERGIE OF THE ION-ELECTRON SYSTEM (eV)
  ---------------------------------------------------
  free  energy   TOTEN  =        -6.45937918 eV

  energy  without entropy=       -6.45750098  energy(sigma->0) =       -6.45844008
 


--------------------------------------------------------------------------------------------------------


    POTLOK:  cpu time    0.0490: real time    0.0535


--------------------------------------------------------------------------------------------------------


     LOOP+:  cpu time   30.2234: real time   30.6875
    4ORBIT:  cpu time    0.0000: real time    0.0000
 


 total charge     
 
# of ion     s       p       d       tot
----------------------------------------
  1        0.434   0.336   9.644  10.414
  2        1.285   2.228   0.000   3.513
------------------------------------------------
tot        1.719   2.564   9.644  13.927
 


 magnetization (x)
 
# of ion     s       p       d       tot
----------------------------------------
  1       -0.022   0.024   0.068   0.069
  2        0.013   0.515   0.000   0.528
------------------------------------------------
tot       -0.009   0.538   0.068   0.597
 

 total amount of memory used by VASP on root node    43814. kBytes
========================================================================

   base      :      30000. kBytes
   nonl-proj :       7608. kBytes
   fftplans  :       1282. kBytes
   grid      :       1092. kBytes
   one-center:         31. kBytes
   wavefun   :       3801. kBytes
 
  
  
 General timing and accounting informations for this job:
 ========================================================
  
                  Total CPU time used (sec):       38.539
                            User time (sec):       32.590
                          System time (sec):        5.949
                         Elapsed time (sec):       39.690
  
                   Maximum memory used (kb):      122140.
                   Average memory used (kb):           0.
  
                          Minor page faults:        55919
                          Major page faults:          356
                 Voluntary context switches:        10099
