 vasp.5.4.4.18Apr17-6-g9f103f2a35 (build Jan 10 2024 09:48:00) complex          
  
 executed on             LinuxIFC date 2024.04.25  15:48:46
 running on   64 total cores
 distrk:  each k-point on   64 cores,    1 groups
 distr:  one band on NCORES_PER_BAND=   8 cores,    8 groups


--------------------------------------------------------------------------------------------------------


 INCAR:
 POTCAR:    PAW_PBE Fe 06Sep2000                  
 POTCAR:    PAW_PBE W 08Apr2002                   
 POTCAR:    PAW_PBE C 08Apr2002                   
 POTCAR:    PAW_PBE Fe 06Sep2000                  
   VRHFIN =Fe:  d7 s1                                                           
   LEXCH  = PE                                                                  
   EATOM  =   594.3153 eV,   43.6809 Ry                                         
                                                                                
   TITEL  = PAW_PBE Fe 06Sep2000                                                
   LULTRA =        F    use ultrasoft PP ?                                      
   IUNSCR =        1    unscreen: 0-lin 1-nonlin 2-no                           
   RPACOR =    2.000    partial core radius                                     
   POMASS =   55.847; ZVAL   =    8.000    mass and valenz                      
   RCORE  =    2.300    outmost cutoff radius                                   
   RWIGS  =    2.460; RWIGS  =    1.302    wigner-seitz radius (au A)           
   ENMAX  =  267.882; ENMIN  =  200.911 eV                                      
   RCLOC  =    1.701    cutoff for local pot                                    
   LCOR   =        T    correct aug charges                                     
   LPAW   =        T    paw PP                                                  
   EAUG   =  511.368                                                            
   DEXC   =    0.000                                                            
   RMAX   =    2.356    core radius for proj-oper                               
   RAUG   =    1.300    factor for augmentation sphere                          
   RDEP   =    2.442    radius for radial grids                                 
   RDEPT  =    1.890    core radius for aug-charge                              
                                                                                
   Atomic configuration                                                         
    9 entries                                                                   
     n  l   j            E        occ.                                          
     1  0  0.50     -6993.8440   2.0000                                         
     2  0  0.50      -814.6047   2.0000                                         
     2  1  1.50      -693.3689   6.0000                                         
     3  0  0.50       -89.4732   2.0000                                         
     3  1  1.50       -55.6373   6.0000                                         
     3  2  2.50        -3.8151   7.0000                                         
     4  0  0.50        -4.2551   1.0000                                         
     4  1  1.50        -3.4015   0.0000                                         
     4  3  2.50        -1.3606   0.0000                                         
   Description                                                                  
     l       E           TYP  RCUT    TYP  RCUT                                 
     2     -3.8151135     23  2.300                                             
     2     -5.1756961     23  2.300                                             
     0     -4.2550963     23  2.300                                             
     0      7.2035603     23  2.300                                             
     1     -2.7211652     23  2.300                                             
     1     18.4316424     23  2.300                                             
  local pseudopotential read in
  partial core-charges read in
  partial kinetic energy density read in
  atomic valenz-charges read in
  non local Contribution for L=           2  read in
    real space projection operators read in
  non local Contribution for L=           2  read in
    real space projection operators read in
  non local Contribution for L=           0  read in
    real space projection operators read in
  non local Contribution for L=           0  read in
    real space projection operators read in
  non local Contribution for L=           1  read in
    real space projection operators read in
  non local Contribution for L=           1  read in
    real space projection operators read in
    PAW grid and wavefunctions read in
 
   number of l-projection  operators is LMAX  =           6
   number of lm-projection operators is LMMAX =          18
 
 POTCAR:    PAW_PBE W 08Apr2002                   
   VRHFIN =W : 6s5d                                                             
   LEXCH  = PE                                                                  
   EATOM  =   204.6103 eV,   15.0384 Ry                                         
                                                                                
   TITEL  = PAW_PBE W 08Apr2002                                                 
   LULTRA =        F    use ultrasoft PP ?                                      
   IUNSCR =        1    unscreen: 0-lin 1-nonlin 2-no                           
   RPACOR =    2.330    partial core radius                                     
   POMASS =  183.850; ZVAL   =    6.000    mass and valenz                      
   RCORE  =    2.750    outmost cutoff radius                                   
   RWIGS  =    2.750; RWIGS  =    1.455    wigner-seitz radius (au A)           
   ENMAX  =  223.057; ENMIN  =  167.293 eV                                      
   RCLOC  =    2.147    cutoff for local pot                                    
   LCOR   =        T    correct aug charges                                     
   LPAW   =        T    paw PP                                                  
   EAUG   =  373.438                                                            
   DEXC   =    0.000                                                            
   RMAX   =    2.801    core radius for proj-oper                               
   RAUG   =    1.300    factor for augmentation sphere                          
   RDEP   =    2.886    radius for radial grids                                 
   RDEPT  =    2.230    core radius for aug-charge                              
                                                                                
   Atomic configuration                                                         
   16 entries                                                                   
     n  l   j            E        occ.                                          
     1  0  0.50    -69465.5836   2.0000                                         
     2  0  0.50    -11986.2642   2.0000                                         
     2  1  1.50    -10479.8616   6.0000                                         
     3  0  0.50     -2759.0758   2.0000                                         
     3  1  1.50     -2313.1857   6.0000                                         
     3  2  2.50     -1801.1185  10.0000                                         
     4  0  0.50      -567.6791   2.0000                                         
     4  1  1.50      -421.4694   6.0000                                         
     4  2  2.50      -236.3473  10.0000                                         
     4  3  3.50       -31.2666  14.0000                                         
     5  0  0.50       -77.1085   2.0000                                         
     5  1  1.50       -41.3856   6.0000                                         
     5  2  2.50        -3.3185   5.0000                                         
     6  0  0.50        -5.1438   1.0000                                         
     6  1  0.50        -3.8096   0.0000                                         
     5  3  2.50        -1.3606   0.0000                                         
   Description                                                                  
     l       E           TYP  RCUT    TYP  RCUT                                 
     2     -3.3185288     23  2.500                                             
     2     -1.5965414     23  2.500                                             
     0     -5.1438054     23  2.500                                             
     0      4.9117504     23  2.500                                             
     1      2.7211652     23  2.750                                             
     1     27.2116520     23  2.750                                             
  local pseudopotential read in
  partial core-charges read in
  partial kinetic energy density read in
  atomic valenz-charges read in
  non local Contribution for L=           2  read in
    real space projection operators read in
  non local Contribution for L=           2  read in
    real space projection operators read in
  non local Contribution for L=           0  read in
    real space projection operators read in
  non local Contribution for L=           0  read in
    real space projection operators read in
  non local Contribution for L=           1  read in
    real space projection operators read in
  non local Contribution for L=           1  read in
    real space projection operators read in
    PAW grid and wavefunctions read in
 
   number of l-projection  operators is LMAX  =           6
   number of lm-projection operators is LMMAX =          18
 
 POTCAR:    PAW_PBE C 08Apr2002                   
   VRHFIN =C: s2p2                                                              
   LEXCH  = PE                                                                  
   EATOM  =   147.1560 eV,   10.8157 Ry                                         
                                                                                
   TITEL  = PAW_PBE C 08Apr2002                                                 
   LULTRA =        F    use ultrasoft PP ?                                      
   IUNSCR =        1    unscreen: 0-lin 1-nonlin 2-no                           
   RPACOR =    1.200    partial core radius                                     
   POMASS =   12.011; ZVAL   =    4.000    mass and valenz                      
   RCORE  =    1.500    outmost cutoff radius                                   
   RWIGS  =    1.630; RWIGS  =    0.863    wigner-seitz radius (au A)           
   ENMAX  =  400.000; ENMIN  =  300.000 eV                                      
   ICORE  =        2    local potential                                         
   LCOR   =        T    correct aug charges                                     
   LPAW   =        T    paw PP                                                  
   EAUG   =  644.873                                                            
   DEXC   =    0.000                                                            
   RMAX   =    1.529    core radius for proj-oper                               
   RAUG   =    1.300    factor for augmentation sphere                          
   RDEP   =    1.501    radius for radial grids                                 
   RDEPT  =    1.300    core radius for aug-charge                              
                                                                                
   Atomic configuration                                                         
    4 entries                                                                   
     n  l   j            E        occ.                                          
     1  0  0.50      -273.3789   2.0000                                         
     2  0  0.50       -13.7508   2.0000                                         
     2  1  0.50        -5.2854   2.0000                                         
     3  2  1.50        -5.4423   0.0000                                         
   Description                                                                  
     l       E           TYP  RCUT    TYP  RCUT                                 
     0    -13.7508458     23  1.200                                             
     0     -8.2022199     23  1.200                                             
     1     -5.2854383     23  1.500                                             
     1     34.0145650     23  1.500                                             
     2     -5.4423304      7  1.500                                             
  local pseudopotential read in
  partial core-charges read in
  partial kinetic energy density read in
  atomic valenz-charges read in
  non local Contribution for L=           0  read in
    real space projection operators read in
  non local Contribution for L=           0  read in
    real space projection operators read in
  non local Contribution for L=           1  read in
    real space projection operators read in
  non local Contribution for L=           1  read in
    real space projection operators read in
    PAW grid and wavefunctions read in
 
   number of l-projection  operators is LMAX  =           4
   number of lm-projection operators is LMMAX =           8
 
 Optimization of the real space projectors (new method)

 maximal supplied QI-value         = 16.25
 optimisation between [QCUT,QGAM] = [ 11.54, 23.24] = [ 37.28,151.24] Ry 
 Optimized for a Real-space Cutoff    1.53 Angstroem

   l    n(q)    QCUT    max X(q) W(low)/X(q) W(high)/X(q)  e(spline) 
   2     10    11.539    80.901    0.11E-03    0.14E-03    0.21E-06
   2     10    11.539    75.754    0.11E-03    0.14E-03    0.22E-06
   0     11    11.539    58.752    0.52E-04    0.18E-04    0.33E-06
   0     11    11.539    30.679    0.44E-04    0.16E-04    0.30E-06
   1     10    11.539    17.977    0.53E-04    0.29E-04    0.13E-06
   1     10    11.539    13.559    0.44E-04    0.25E-04    0.11E-06
 Optimization of the real space projectors (new method)

 maximal supplied QI-value         = 13.61
 optimisation between [QCUT,QGAM] = [ 11.57, 23.27] = [ 37.45,151.59] Ry 
 Optimized for a Real-space Cutoff    1.53 Angstroem

   l    n(q)    QCUT    max X(q) W(low)/X(q) W(high)/X(q)  e(spline) 
   2     10    11.565   130.855    0.24E-03    0.66E-03    0.14E-05
   2     10    11.565   114.007    0.24E-03    0.66E-03    0.14E-05
   0     11    11.565    84.709    0.46E-04    0.91E-04    0.49E-06
   0     11    11.565    49.163    0.42E-04    0.83E-04    0.45E-06
   1     10    11.565    15.765    0.13E-03    0.22E-03    0.67E-06
   1     10    11.565    10.638    0.10E-03    0.17E-03    0.52E-06
 Optimization of the real space projectors (new method)

 maximal supplied QI-value         = 25.13
 optimisation between [QCUT,QGAM] = [ 11.56, 23.12] = [ 37.43,149.72] Ry 
 Optimized for a Real-space Cutoff    1.04 Angstroem

   l    n(q)    QCUT    max X(q) W(low)/X(q) W(high)/X(q)  e(spline) 
   0      7    11.561   115.676    0.20E-03    0.60E-03    0.21E-06
   0      7    11.561    87.132    0.20E-03    0.59E-03    0.21E-06
   1      7    11.561     4.429    0.23E-03    0.35E-03    0.15E-06
   1      7    11.561     2.733    0.18E-03    0.25E-03    0.12E-06
  PAW_PBE Fe 06Sep2000                  :
 energy of atom  1       EATOM= -594.3153
 kinetic energy error for atom=    0.0026 (will be added to EATOM!!)
  PAW_PBE W 08Apr2002                   :
 energy of atom  2       EATOM= -204.6103
 kinetic energy error for atom=    0.0014 (will be added to EATOM!!)
  PAW_PBE C 08Apr2002                   :
 energy of atom  3       EATOM= -147.1560
 kinetic energy error for atom=    0.0071 (will be added to EATOM!!)
 
 
 POSCAR: Fe8 W4 C4                               
  positions in direct lattice
  velocities in cartesian coordinates
 exchange correlation table for  LEXCH =        8
   RHO(1)=    0.500       N(1)  =     2000
   RHO(2)=  100.500       N(2)  =     4000
 


--------------------------------------------------------------------------------------------------------


 ion  position               nearest neighbor table
   1  0.140  0.674  0.065-  13 2.02  14 2.31   4 2.34   4 2.34   5 2.52   9 2.53   9 2.53  10 2.79
                            11 2.85   7 2.86  12 2.97   8 3.07   8 3.07
   2  0.360  0.174  0.435-  14 2.02  13 2.31   3 2.34   3 2.34   6 2.52  10 2.53  10 2.53   9 2.79
                            12 2.85   8 2.86  11 2.97   7 3.07   7 3.07
   3  0.860  0.326  0.565-  15 2.02  16 2.31   2 2.34   2 2.34   7 2.52  11 2.53  11 2.53  12 2.79
                             9 2.85   5 2.86  10 2.97   6 3.07   6 3.07
   4  0.640  0.826  0.935-  16 2.02  15 2.31   1 2.34   1 2.34   8 2.52  12 2.53  12 2.53  11 2.79
                            10 2.85   6 2.86   9 2.97   5 3.07   5 3.07
   5  0.860  0.326  0.935-  15 2.02  16 2.31   8 2.34   8 2.34   1 2.52  11 2.53  11 2.53  12 2.79
                             9 2.85   3 2.86  10 2.97   4 3.07   4 3.07
   6  0.640  0.826  0.565-  16 2.02  15 2.31   7 2.34   7 2.34   2 2.52  12 2.53  12 2.53  11 2.79
                            10 2.85   4 2.86   9 2.97   3 3.07   3 3.07
   7  0.140  0.674  0.435-  13 2.02  14 2.31   6 2.34   6 2.34   3 2.52   9 2.53   9 2.53  10 2.79
                            11 2.85   1 2.86  12 2.97   2 3.07   2 3.07
   8  0.360  0.174  0.065-  14 2.02  13 2.31   5 2.34   5 2.34   4 2.52  10 2.53  10 2.53   9 2.79
                            12 2.85   2 2.86  11 2.97   1 3.07   1 3.07
   9  0.641  0.536  0.250-  14 2.15  14 2.18  13 2.22   7 2.53   1 2.53   7 2.53   1 2.53   8 2.79
                             2 2.79   5 2.85   3 2.85   6 2.97   4 2.97  10 3.07  10 3.07
  10  0.859  0.036  0.250-  13 2.15  13 2.18  14 2.22   2 2.53   8 2.53   8 2.53   2 2.53   7 2.79
                             1 2.79   4 2.85   6 2.85   5 2.97   3 2.97   9 3.07   9 3.07
  11  0.359  0.464  0.750-  16 2.15  16 2.18  15 2.22   3 2.53   5 2.53   5 2.53   3 2.53   4 2.79
                             6 2.79   1 2.85   7 2.85   2 2.97   8 2.97  12 3.07  12 3.07
  12  0.141  0.964  0.750-  15 2.15  15 2.18  16 2.22   6 2.53   4 2.53   6 2.53   4 2.53   3 2.79
                             5 2.79   8 2.85   2 2.85   1 2.97   7 2.97  11 3.07  11 3.07
  13  0.364  0.867  0.250-   1 2.02   7 2.02  10 2.15  10 2.18   9 2.22   8 2.31   2 2.31
  14  0.136  0.367  0.250-   2 2.02   8 2.02   9 2.15   9 2.18  10 2.22   7 2.31   1 2.31
  15  0.636  0.133  0.750-   3 2.02   5 2.02  12 2.15  12 2.18  11 2.22   4 2.31   6 2.31
  16  0.864  0.633  0.750-   4 2.02   6 2.02  11 2.15  11 2.18  12 2.22   3 2.31   5 2.31
 
  LATTYP: Found a simple orthorhombic cell.
 ALAT       =     3.8437388093
 B/A-ratio  =     1.5340018440
 C/A-ratio  =     2.0077991573
  
  Lattice vectors:
  
 A1 = (   3.8437388093,   0.0000000000,   0.0000000000)
 A2 = (   0.0000000000,   5.8963024212,   0.0000000000)
 A3 = (   0.0000000000,   0.0000000000,   7.7174555423)


Analysis of symmetry for initial positions (statically):
=====================================================================
 Subroutine PRICEL returns:
 Original cell was already a primitive cell.
 

 Routine SETGRP: Setting up the symmetry group for a 
 simple orthorhombic supercell.


 Subroutine GETGRP returns: Found  8 space group operations
 (whereof  2 operations were pure point group operations)
 out of a pool of  8 trial point group operations.


The static configuration has the point symmetry S_2 .
 The point group associated with its full space group is D_2h.


Analysis of symmetry for dynamics (positions and initial velocities):
=====================================================================
 Subroutine PRICEL returns:
 Original cell was already a primitive cell.
 

 Routine SETGRP: Setting up the symmetry group for a 
 simple orthorhombic supercell.


 Subroutine GETGRP returns: Found  8 space group operations
 (whereof  2 operations were pure point group operations)
 out of a pool of  8 trial point group operations.


The dynamic configuration has the point symmetry S_2 .
 The point group associated with its full space group is D_2h.


Analysis of structural, dynamic, and magnetic symmetry:
=====================================================================
 Subroutine PRICEL returns:
 Original cell was already a primitive cell.
 

 Routine SETGRP: Setting up the symmetry group for a 
 simple orthorhombic supercell.


 Subroutine GETGRP returns: Found  8 space group operations
 (whereof  2 operations were pure point group operations)
 out of a pool of  8 trial point group operations.


The magnetic configuration has the point symmetry S_2 .
 The point group associated with its full space group is D_2h.


 Subroutine INISYM returns: Found  8 space group operations
 (whereof  2 operations are pure point group operations),
 and found     1 'primitive' translations

 
 
 KPOINTS: 0.040   7   4   3   24  0.040  172   12 
  k-points in reciprocal lattice
Space group operators:
 irot       det(A)        alpha          n_x          n_y          n_z        tau_x        tau_y        tau_z
    1     1.000000     0.000001     1.000000     0.000000     0.000000     0.000000     0.000000     0.000000
    2    -1.000000     0.000001     1.000000     0.000000     0.000000     0.000000     0.000000     0.000000
    3     1.000000   180.000000     0.000000     0.000000     1.000000     0.000000     0.000000     0.500000
    4    -1.000000   180.000000     0.000000     0.000000     1.000000     0.000000     0.000000     0.500000
    5     1.000000   180.000000     0.000000     1.000000     0.000000     0.500000     0.500000     0.500000
    6    -1.000000   180.000000     0.000000     1.000000     0.000000     0.500000     0.500000     0.500000
    7     1.000000   180.000000     1.000000     0.000000     0.000000     0.500000     0.500000     0.000000
    8    -1.000000   180.000000     1.000000     0.000000     0.000000     0.500000     0.500000     0.000000

 ----------------------------------------------------------------------------- 
|                                                                             |
|           W    W    AA    RRRRR   N    N  II  N    N   GGGG   !!!           |
|           W    W   A  A   R    R  NN   N  II  NN   N  G    G  !!!           |
|           W    W  A    A  R    R  N N  N  II  N N  N  G       !!!           |
|           W WW W  AAAAAA  RRRRR   N  N N  II  N  N N  G  GGG   !            |
|           WW  WW  A    A  R   R   N   NN  II  N   NN  G    G                |
|           W    W  A    A  R    R  N    N  II  N    N   GGGG   !!!           |
|                                                                             |
|      Your generating k-point grid is not commensurate to the symmetry       |
|      of the lattice.  This can cause   slow convergence with respect        |
|      to k-points for HF type calculations                                   |
|      suggested SOLUTIONS:                                                   |
|       ) if not already the case, use automatic k-point generation           |
|       ) shift your grid to Gamma (G) (e.g. required for hex or fcc lattice) |
|                                                                             |
 ----------------------------------------------------------------------------- 

 
 Subroutine IBZKPT_HF returns following result:
 ==============================================
 
 Found    256 k-points in 1st BZ
 the following    256 k-points will be used (e.g. in the exchange kernel)
 Following reciprocal coordinates:   # in IRBZ
  0.000000  0.000000  0.000000    0.01190476   1 t-inv F
  0.142857  0.000000  0.000000    0.01190476   2 t-inv F
  0.285714  0.000000  0.000000    0.01190476   3 t-inv F
  0.428571  0.000000  0.000000    0.01190476   4 t-inv F
  0.000000  0.250000  0.000000    0.01190476   5 t-inv F
  0.142857  0.250000  0.000000    0.01190476   6 t-inv F
  0.285714  0.250000  0.000000    0.01190476   7 t-inv F
  0.428571  0.250000  0.000000    0.01190476   8 t-inv F
  0.000000  0.500000  0.000000    0.01190476   9 t-inv F
  0.142857  0.500000  0.000000    0.01190476  10 t-inv F
  0.285714  0.500000  0.000000    0.01190476  11 t-inv F
  0.428571  0.500000  0.000000    0.01190476  12 t-inv F
  0.000000  0.000000  0.333333    0.01190476  13 t-inv F
  0.142857  0.000000  0.333333    0.01190476  14 t-inv F
  0.285714  0.000000  0.333333    0.01190476  15 t-inv F
  0.428571  0.000000  0.333333    0.01190476  16 t-inv F
  0.000000  0.250000  0.333333    0.01190476  17 t-inv F
  0.142857  0.250000  0.333333    0.01190476  18 t-inv F
  0.285714  0.250000  0.333333    0.01190476  19 t-inv F
  0.428571  0.250000  0.333333    0.01190476  20 t-inv F
  0.000000  0.500000  0.333333    0.01190476  21 t-inv F
  0.142857  0.500000  0.333333    0.01190476  22 t-inv F
  0.285714  0.500000  0.333333    0.01190476  23 t-inv F
  0.428571  0.500000  0.333333    0.01190476  24 t-inv F
  0.000000  0.000000  0.000000    0.00000000  25 t-inv F
  0.026316  0.000000  0.000000    0.00000000  26 t-inv F
  0.052632  0.000000  0.000000    0.00000000  27 t-inv F
  0.078947  0.000000  0.000000    0.00000000  28 t-inv F
  0.105263  0.000000  0.000000    0.00000000  29 t-inv F
  0.131579  0.000000  0.000000    0.00000000  30 t-inv F
  0.157895  0.000000  0.000000    0.00000000  31 t-inv F
  0.184211  0.000000  0.000000    0.00000000  32 t-inv F
  0.210526  0.000000  0.000000    0.00000000  33 t-inv F
  0.236842  0.000000  0.000000    0.00000000  34 t-inv F
  0.263158  0.000000  0.000000    0.00000000  35 t-inv F
  0.289474  0.000000  0.000000    0.00000000  36 t-inv F
  0.315789  0.000000  0.000000    0.00000000  37 t-inv F
  0.342105  0.000000  0.000000    0.00000000  38 t-inv F
  0.368421  0.000000  0.000000    0.00000000  39 t-inv F
  0.394737  0.000000  0.000000    0.00000000  40 t-inv F
  0.421053  0.000000  0.000000    0.00000000  41 t-inv F
  0.447368  0.000000  0.000000    0.00000000  42 t-inv F
  0.473684  0.000000  0.000000    0.00000000  43 t-inv F
  0.500000  0.000000  0.000000    0.00000000  44 t-inv F
  0.500000  0.000000  0.000000    0.00000000  45 t-inv F
  0.500000  0.041667  0.000000    0.00000000  46 t-inv F
  0.500000  0.083333  0.000000    0.00000000  47 t-inv F
  0.500000  0.125000  0.000000    0.00000000  48 t-inv F
  0.500000  0.166667  0.000000    0.00000000  49 t-inv F
  0.500000  0.208333  0.000000    0.00000000  50 t-inv F
  0.500000  0.250000  0.000000    0.00000000  51 t-inv F
  0.500000  0.291667  0.000000    0.00000000  52 t-inv F
  0.500000  0.333333  0.000000    0.00000000  53 t-inv F
  0.500000  0.375000  0.000000    0.00000000  54 t-inv F
  0.500000  0.416667  0.000000    0.00000000  55 t-inv F
  0.500000  0.458333  0.000000    0.00000000  56 t-inv F
  0.500000  0.500000  0.000000    0.00000000  57 t-inv F
  0.500000  0.500000  0.000000    0.00000000  58 t-inv F
  0.473684  0.500000  0.000000    0.00000000  59 t-inv F
  0.447368  0.500000  0.000000    0.00000000  60 t-inv F
  0.421053  0.500000  0.000000    0.00000000  61 t-inv F
  0.394737  0.500000  0.000000    0.00000000  62 t-inv F
  0.368421  0.500000  0.000000    0.00000000  63 t-inv F
  0.342105  0.500000  0.000000    0.00000000  64 t-inv F
  0.315789  0.500000  0.000000    0.00000000  65 t-inv F
  0.289474  0.500000  0.000000    0.00000000  66 t-inv F
  0.263158  0.500000  0.000000    0.00000000  67 t-inv F
  0.236842  0.500000  0.000000    0.00000000  68 t-inv F
  0.210526  0.500000  0.000000    0.00000000  69 t-inv F
  0.184211  0.500000  0.000000    0.00000000  70 t-inv F
  0.157895  0.500000  0.000000    0.00000000  71 t-inv F
  0.131579  0.500000  0.000000    0.00000000  72 t-inv F
  0.105263  0.500000  0.000000    0.00000000  73 t-inv F
  0.078947  0.500000  0.000000    0.00000000  74 t-inv F
  0.052632  0.500000  0.000000    0.00000000  75 t-inv F
  0.026316  0.500000  0.000000    0.00000000  76 t-inv F
  0.000000  0.500000  0.000000    0.00000000  77 t-inv F
  0.000000  0.500000  0.000000    0.00000000  78 t-inv F
  0.000000  0.458333  0.000000    0.00000000  79 t-inv F
  0.000000  0.416667  0.000000    0.00000000  80 t-inv F
  0.000000  0.375000  0.000000    0.00000000  81 t-inv F
  0.000000  0.333333  0.000000    0.00000000  82 t-inv F
  0.000000  0.291667  0.000000    0.00000000  83 t-inv F
  0.000000  0.250000  0.000000    0.00000000  84 t-inv F
  0.000000  0.208333  0.000000    0.00000000  85 t-inv F
  0.000000  0.166667  0.000000    0.00000000  86 t-inv F
  0.000000  0.125000  0.000000    0.00000000  87 t-inv F
  0.000000  0.083333  0.000000    0.00000000  88 t-inv F
  0.000000  0.041667  0.000000    0.00000000  89 t-inv F
  0.000000  0.000000  0.000000    0.00000000  90 t-inv F
  0.000000  0.000000  0.000000    0.00000000  91 t-inv F
  0.000000  0.000000  0.055556    0.00000000  92 t-inv F
  0.000000  0.000000  0.111111    0.00000000  93 t-inv F
  0.000000  0.000000  0.166667    0.00000000  94 t-inv F
  0.000000  0.000000  0.222222    0.00000000  95 t-inv F
  0.000000  0.000000  0.277778    0.00000000  96 t-inv F
  0.000000  0.000000  0.333333    0.00000000  97 t-inv F
  0.000000  0.000000  0.388889    0.00000000  98 t-inv F
  0.000000  0.000000  0.444444    0.00000000  99 t-inv F
  0.000000  0.000000  0.500000    0.00000000 100 t-inv F
  0.000000  0.000000  0.500000    0.00000000 101 t-inv F
  0.026316  0.000000  0.500000    0.00000000 102 t-inv F
  0.052632  0.000000  0.500000    0.00000000 103 t-inv F
  0.078947  0.000000  0.500000    0.00000000 104 t-inv F
  0.105263  0.000000  0.500000    0.00000000 105 t-inv F
  0.131579  0.000000  0.500000    0.00000000 106 t-inv F
  0.157895  0.000000  0.500000    0.00000000 107 t-inv F
  0.184211  0.000000  0.500000    0.00000000 108 t-inv F
  0.210526  0.000000  0.500000    0.00000000 109 t-inv F
  0.236842  0.000000  0.500000    0.00000000 110 t-inv F
  0.263158  0.000000  0.500000    0.00000000 111 t-inv F
  0.289474  0.000000  0.500000    0.00000000 112 t-inv F
  0.315789  0.000000  0.500000    0.00000000 113 t-inv F
  0.342105  0.000000  0.500000    0.00000000 114 t-inv F
  0.368421  0.000000  0.500000    0.00000000 115 t-inv F
  0.394737  0.000000  0.500000    0.00000000 116 t-inv F
  0.421053  0.000000  0.500000    0.00000000 117 t-inv F
  0.447368  0.000000  0.500000    0.00000000 118 t-inv F
  0.473684  0.000000  0.500000    0.00000000 119 t-inv F
  0.500000  0.000000  0.500000    0.00000000 120 t-inv F
  0.500000  0.000000  0.500000    0.00000000 121 t-inv F
  0.500000  0.041667  0.500000    0.00000000 122 t-inv F
  0.500000  0.083333  0.500000    0.00000000 123 t-inv F
  0.500000  0.125000  0.500000    0.00000000 124 t-inv F
  0.500000  0.166667  0.500000    0.00000000 125 t-inv F
  0.500000  0.208333  0.500000    0.00000000 126 t-inv F
  0.500000  0.250000  0.500000    0.00000000 127 t-inv F
  0.500000  0.291667  0.500000    0.00000000 128 t-inv F
  0.500000  0.333333  0.500000    0.00000000 129 t-inv F
  0.500000  0.375000  0.500000    0.00000000 130 t-inv F
  0.500000  0.416667  0.500000    0.00000000 131 t-inv F
  0.500000  0.458333  0.500000    0.00000000 132 t-inv F
  0.500000  0.500000  0.500000    0.00000000 133 t-inv F
  0.500000  0.500000  0.500000    0.00000000 134 t-inv F
  0.473684  0.500000  0.500000    0.00000000 135 t-inv F
  0.447368  0.500000  0.500000    0.00000000 136 t-inv F
  0.421053  0.500000  0.500000    0.00000000 137 t-inv F
  0.394737  0.500000  0.500000    0.00000000 138 t-inv F
  0.368421  0.500000  0.500000    0.00000000 139 t-inv F
  0.342105  0.500000  0.500000    0.00000000 140 t-inv F
  0.315789  0.500000  0.500000    0.00000000 141 t-inv F
  0.289474  0.500000  0.500000    0.00000000 142 t-inv F
  0.263158  0.500000  0.500000    0.00000000 143 t-inv F
  0.236842  0.500000  0.500000    0.00000000 144 t-inv F
  0.210526  0.500000  0.500000    0.00000000 145 t-inv F
  0.184211  0.500000  0.500000    0.00000000 146 t-inv F
  0.157895  0.500000  0.500000    0.00000000 147 t-inv F
  0.131579  0.500000  0.500000    0.00000000 148 t-inv F
  0.105263  0.500000  0.500000    0.00000000 149 t-inv F
  0.078947  0.500000  0.500000    0.00000000 150 t-inv F
  0.052632  0.500000  0.500000    0.00000000 151 t-inv F
  0.026316  0.500000  0.500000    0.00000000 152 t-inv F
  0.000000  0.500000  0.500000    0.00000000 153 t-inv F
  0.000000  0.500000  0.500000    0.00000000 154 t-inv F
  0.000000  0.458333  0.500000    0.00000000 155 t-inv F
  0.000000  0.416667  0.500000    0.00000000 156 t-inv F
  0.000000  0.375000  0.500000    0.00000000 157 t-inv F
  0.000000  0.333333  0.500000    0.00000000 158 t-inv F
  0.000000  0.291667  0.500000    0.00000000 159 t-inv F
  0.000000  0.250000  0.500000    0.00000000 160 t-inv F
  0.000000  0.208333  0.500000    0.00000000 161 t-inv F
  0.000000  0.166667  0.500000    0.00000000 162 t-inv F
  0.000000  0.125000  0.500000    0.00000000 163 t-inv F
  0.000000  0.083333  0.500000    0.00000000 164 t-inv F
  0.000000  0.041667  0.500000    0.00000000 165 t-inv F
  0.000000  0.000000  0.500000    0.00000000 166 t-inv F
  0.500000  0.000000  0.000000    0.00000000 167 t-inv F
  0.500000  0.000000  0.055556    0.00000000 168 t-inv F
  0.500000  0.000000  0.111111    0.00000000 169 t-inv F
  0.500000  0.000000  0.166667    0.00000000 170 t-inv F
  0.500000  0.000000  0.222222    0.00000000 171 t-inv F
  0.500000  0.000000  0.277778    0.00000000 172 t-inv F
  0.500000  0.000000  0.333333    0.00000000 173 t-inv F
  0.500000  0.000000  0.388889    0.00000000 174 t-inv F
  0.500000  0.000000  0.444444    0.00000000 175 t-inv F
  0.500000  0.000000  0.500000    0.00000000 176 t-inv F
  0.000000  0.500000  0.000000    0.00000000 177 t-inv F
  0.000000  0.500000  0.055556    0.00000000 178 t-inv F
  0.000000  0.500000  0.111111    0.00000000 179 t-inv F
  0.000000  0.500000  0.166667    0.00000000 180 t-inv F
  0.000000  0.500000  0.222222    0.00000000 181 t-inv F
  0.000000  0.500000  0.277778    0.00000000 182 t-inv F
  0.000000  0.500000  0.333333    0.00000000 183 t-inv F
  0.000000  0.500000  0.388889    0.00000000 184 t-inv F
  0.000000  0.500000  0.444444    0.00000000 185 t-inv F
  0.000000  0.500000  0.500000    0.00000000 186 t-inv F
  0.500000  0.500000  0.000000    0.00000000 187 t-inv F
  0.500000  0.500000  0.055556    0.00000000 188 t-inv F
  0.500000  0.500000  0.111111    0.00000000 189 t-inv F
  0.500000  0.500000  0.166667    0.00000000 190 t-inv F
  0.500000  0.500000  0.222222    0.00000000 191 t-inv F
  0.500000  0.500000  0.277778    0.00000000 192 t-inv F
  0.500000  0.500000  0.333333    0.00000000 193 t-inv F
  0.500000  0.500000  0.388889    0.00000000 194 t-inv F
  0.500000  0.500000  0.444444    0.00000000 195 t-inv F
  0.500000  0.500000  0.500000    0.00000000 196 t-inv F
 -0.142857  0.000000  0.000000    0.01190476   2 t-inv F
 -0.285714  0.000000  0.000000    0.01190476   3 t-inv F
 -0.428571  0.000000  0.000000    0.01190476   4 t-inv F
  0.000000 -0.250000  0.000000    0.01190476   5 t-inv F
 -0.142857 -0.250000  0.000000    0.01190476   6 t-inv F
 -0.142857  0.250000  0.000000    0.01190476   6 t-inv F
  0.142857 -0.250000  0.000000    0.01190476   6 t-inv F
 -0.285714 -0.250000  0.000000    0.01190476   7 t-inv F
 -0.285714  0.250000  0.000000    0.01190476   7 t-inv F
  0.285714 -0.250000  0.000000    0.01190476   7 t-inv F
 -0.428571 -0.250000  0.000000    0.01190476   8 t-inv F
 -0.428571  0.250000  0.000000    0.01190476   8 t-inv F
  0.428571 -0.250000  0.000000    0.01190476   8 t-inv F
 -0.142857 -0.500000  0.000000    0.01190476  10 t-inv F
 -0.285714 -0.500000  0.000000    0.01190476  11 t-inv F
 -0.428571 -0.500000  0.000000    0.01190476  12 t-inv F
  0.000000  0.000000 -0.333333    0.01190476  13 t-inv F
 -0.142857  0.000000 -0.333333    0.01190476  14 t-inv F
 -0.142857  0.000000  0.333333    0.01190476  14 t-inv F
  0.142857  0.000000 -0.333333    0.01190476  14 t-inv F
 -0.285714  0.000000 -0.333333    0.01190476  15 t-inv F
 -0.285714  0.000000  0.333333    0.01190476  15 t-inv F
  0.285714  0.000000 -0.333333    0.01190476  15 t-inv F
 -0.428571  0.000000 -0.333333    0.01190476  16 t-inv F
 -0.428571  0.000000  0.333333    0.01190476  16 t-inv F
  0.428571  0.000000 -0.333333    0.01190476  16 t-inv F
  0.000000 -0.250000 -0.333333    0.01190476  17 t-inv F
  0.000000 -0.250000  0.333333    0.01190476  17 t-inv F
  0.000000  0.250000 -0.333333    0.01190476  17 t-inv F
 -0.142857 -0.250000 -0.333333    0.01190476  18 t-inv F
 -0.142857 -0.250000  0.333333    0.01190476  18 t-inv F
  0.142857  0.250000 -0.333333    0.01190476  18 t-inv F
 -0.142857  0.250000 -0.333333    0.01190476  18 t-inv F
  0.142857 -0.250000  0.333333    0.01190476  18 t-inv F
  0.142857 -0.250000 -0.333333    0.01190476  18 t-inv F
 -0.142857  0.250000  0.333333    0.01190476  18 t-inv F
 -0.285714 -0.250000 -0.333333    0.01190476  19 t-inv F
 -0.285714 -0.250000  0.333333    0.01190476  19 t-inv F
  0.285714  0.250000 -0.333333    0.01190476  19 t-inv F
 -0.285714  0.250000 -0.333333    0.01190476  19 t-inv F
  0.285714 -0.250000  0.333333    0.01190476  19 t-inv F
  0.285714 -0.250000 -0.333333    0.01190476  19 t-inv F
 -0.285714  0.250000  0.333333    0.01190476  19 t-inv F
 -0.428571 -0.250000 -0.333333    0.01190476  20 t-inv F
 -0.428571 -0.250000  0.333333    0.01190476  20 t-inv F
  0.428571  0.250000 -0.333333    0.01190476  20 t-inv F
 -0.428571  0.250000 -0.333333    0.01190476  20 t-inv F
  0.428571 -0.250000  0.333333    0.01190476  20 t-inv F
  0.428571 -0.250000 -0.333333    0.01190476  20 t-inv F
 -0.428571  0.250000  0.333333    0.01190476  20 t-inv F
  0.000000 -0.500000 -0.333333    0.01190476  21 t-inv F
 -0.142857 -0.500000 -0.333333    0.01190476  22 t-inv F
 -0.142857 -0.500000  0.333333    0.01190476  22 t-inv F
  0.142857  0.500000 -0.333333    0.01190476  22 t-inv F
 -0.285714 -0.500000 -0.333333    0.01190476  23 t-inv F
 -0.285714 -0.500000  0.333333    0.01190476  23 t-inv F
  0.285714  0.500000 -0.333333    0.01190476  23 t-inv F
 -0.428571 -0.500000 -0.333333    0.01190476  24 t-inv F
 -0.428571 -0.500000  0.333333    0.01190476  24 t-inv F
  0.428571  0.500000 -0.333333    0.01190476  24 t-inv F


--------------------------------------------------------------------------------------------------------




 Dimension of arrays:
   k-points           NKPTS =    196   k-points in BZ     NKDIM =    256   number of bands    NBANDS=     72
   number of dos      NEDOS =    301   number of ions     NIONS =     16
   non local maximal  LDIM  =      6   non local SUM 2l+1 LMDIM =     18
   total plane-waves  NPLWV =  86400
   max r-space proj   IRMAX =   7516   max aug-charges    IRDMAX= 225746
   dimension x,y,z NGX =    30 NGY =   48 NGZ =   60
   dimension x,y,z NGXF=    60 NGYF=   96 NGZF=  120
   support grid    NGXF=   120 NGYF=  192 NGZF=  240
   ions per type =               8   4   4
   NGX,Y,Z   is equivalent  to a cutoff of  12.98, 13.53, 12.92 a.u.
   NGXF,Y,Z  is equivalent  to a cutoff of  25.95, 27.07, 25.85 a.u.

 SYSTEM =  matgen-band                             
 POSCAR =  Fe8 W4 C4                               

 Startparameter for this run:
   NWRITE =      2    write-flag & timer
   PREC   = accura    normal or accurate (medium, high low for compatibility)
   ISTART =      1    job   : 0-new  1-cont  2-samecut
   ICHARG =     11    charge: 1-file 2-atom 10-const
   ISPIN  =      2    spin polarized calculation?
   LNONCOLLINEAR =      F non collinear calculations
   LSORBIT =      F    spin-orbit coupling
   INIWAV =      1    electr: 0-lowe 1-rand  2-diag
   LASPH  =      F    aspherical Exc in radial PAW
   METAGGA=      F    non-selfconsistent MetaGGA calc.

 Electronic Relaxation 1
   ENCUT  =  520.0 eV  38.22 Ry    6.18 a.u.   7.15 10.96 14.35*2*pi/ulx,y,z
   ENINI  =  520.0     initial cutoff
   ENAUG  =  644.9 eV  augmentation charge cutoff
   NELM   =     60;   NELMIN=  6; NELMDL=  0     # of ELM steps 
   EDIFF  = 0.1E-02   stopping-criterion for ELM
   LREAL  =      T    real-space projection
   NLSPLINE    = F    spline interpolate recip. space projectors
   LCOMPAT=      F    compatible to vasp.4.4
   GGA_COMPAT  = T    GGA compatible to vasp.4.4-vasp.4.6
   LMAXPAW     = -100 max onsite density
   LMAXMIX     =    2 max onsite mixed and CHGCAR
   VOSKOWN=      0    Vosko Wilk Nusair interpolation
   ROPT   =   -0.00025  -0.00025  -0.00025
 Ionic relaxation
   EDIFFG = -.1E-01   stopping-criterion for IOM
   NSW    =      0    number of steps for IOM
   NBLOCK =      1;   KBLOCK =      1    inner block; outer block 
   IBRION =     -1    ionic relax: 0-MD 1-quasi-New 2-CG
   NFREE  =      0    steps in history (QN), initial steepest desc. (CG)
   ISIF   =      0    stress and relaxation
   IWAVPR =     10    prediction:  0-non 1-charg 2-wave 3-comb
   ISYM   =      3    0-nonsym 1-usesym 2-fastsym
   LCORR  =      T    Harris-Foulkes like correction to forces

   POTIM  = 0.0500    time-step for ionic-motion
   TEIN   =    0.0    initial temperature
   TEBEG  =    0.0;   TEEND  =   0.0 temperature during run
   SMASS  =  -3.00    Nose mass-parameter (am)
   estimated Nose-frequenzy (Omega)   =  0.10E-29 period in steps =****** mass=  -0.338E-27a.u.
   SCALEE = 1.0000    scale energy and forces
   NPACO  =    256;   APACO  = 16.0  distance and # of slots for P.C.
   PSTRESS=    0.0 pullay stress

  Mass of Ions in am
   POMASS =  55.85183.85 12.01
  Ionic Valenz
   ZVAL   =   8.00  6.00  4.00
  Atomic Wigner-Seitz radii
   RWIGS  =  -1.00 -1.00 -1.00
  virtual crystal weights 
   VCA    =   1.00  1.00  1.00
   NELECT =     104.0000    total number of electrons
   NUPDOWN=      -1.0000    fix difference up-down

 DOS related values:
   EMIN   =  10.00;   EMAX   =-10.00  energy-range for DOS
   EFERMI =   0.00
   ISMEAR =     0;   SIGMA  =   0.05  broadening in eV -4-tet -1-fermi 0-gaus

 Electronic relaxation 2 (details)
   IALGO  =     53    algorithm
   LDIAG  =      T    sub-space diagonalisation (order eigenvalues)
   LSUBROT=      F    optimize rotation matrix (better conditioning)
   TURBO    =      0    0=normal 1=particle mesh
   IRESTART =      0    0=no restart 2=restart with 2 vectors
   NREBOOT  =      0    no. of reboots
   NMIN     =      0    reboot dimension
   EREF     =   0.00    reference energy to select bands
   IMIX   =      4    mixing-type and parameters
     AMIX     =   0.10;   BMIX     =  1.20
     AMIX_MAG =   0.40;   BMIX_MAG =  1.20
     AMIN     =   0.10
     WC   =   100.;   INIMIX=   1;  MIXPRE=   1;  MAXMIX= -45

 Intra band minimization:
   WEIMIN = 0.0000     energy-eigenvalue tresh-hold
   EBREAK =  0.35E-05  absolut break condition
   DEPER  =   0.30     relativ break condition  

   TIME   =   0.40     timestep for ELM

  volume/ion in A,a.u.               =      10.93        73.77
  Fermi-wavevector in a.u.,A,eV,Ry     =   1.376628  2.601450 25.784475  1.895105
  Thomas-Fermi vector in A             =   2.501856
 
 Write flags
   LWAVE        =      F    write WAVECAR
   LDOWNSAMPLE  =      F    k-point downsampling of WAVECAR
   LCHARG       =      T    write CHGCAR
   LVTOT        =      F    write LOCPOT, total local potential
   LVHAR        =      F    write LOCPOT, Hartree potential only
   LELF         =      F    write electronic localiz. function (ELF)
   LORBIT       =     11    0 simple, 1 ext, 2 COOP (PROOUT), +10 PAW based schemes


 Dipole corrections
   LMONO  =      F    monopole corrections only (constant potential shift)
   LDIPOL =      F    correct potential (dipole corrections)
   IDIPOL =      0    1-x, 2-y, 3-z, 4-all directions 
   EPSILON=  1.0000000 bulk dielectric constant

 Exchange correlation treatment:
   GGA     =    --    GGA type
   LEXCH   =     8    internal setting for exchange type
   VOSKOWN=      0    Vosko Wilk Nusair interpolation
   EXXOEP  =     0    0=HF, 1=EXX-LHF (local Hartree Fock) 2=EXX OEP
   LHFCALC =     T    Hartree Fock is set to
   LSYMGRAD=     F    symmetrize gradient (conserves proper symmetry)
   PRECFOCK=normal    Normal, Fast or Accurate (Low or Medium for compatibility)
   LRHFCALC=     F    long range Hartree Fock
   LRSCOR  =     F    long range correlation only (use DFT for short range part)
   LTHOMAS =     F    Thomas Fermi screening in HF
   LMODELHF=     F    short range full HF, long range fraction AEXX
   ENCUT4O =  -1.0   cutoff for four orbital integrals eV
   LMAXFOCK=     4    L truncation for augmentation on plane wave grid
   LMAXFOCKAE=  -1    L truncation for all-electron charge restoration on plane wave grid
   NMAXFOCKAE=   1    number of basis functions for all-electron charge restoration
   LFOCKAEDFT=     F  apply the AE augmentation even for DFT
   NKREDX  =     1    reduce k-point grid by
   NKREDY  =     1    reduce k-point grid by
   NKREDZ  =     1    reduce k-point grid by
   SHIFTRED=     F    shift reduced grid of Gamma
   HFKIDENT=     F    idential grid for each k-point
   ODDONLY =     F    use only odd q-grid points
   EVENONLY=     F    use only even q-grid points
   HFALPHA =   -1.0000 decay constant for conv. correction
   MCALPHA =    0.0000 extent of test-charge in conv. correction in multipole expansion
   AEXX    =    0.2500 exact exchange contribution
   HFSCREEN=    0.2000 screening length (either q_TF or 0.3 A-1)
   HFSCREENC=   0.2000 screening length for correlation (either q_TF or 0.3 A-1)
   HFRCUT  =    0.0000 spherical cutoff for potential kernel
   ALDAX   =    0.7500 LDA exchange part
   AGGAX   =    0.7500 GGA exchange part
   ALDAC   =    1.0000 LDA correlation
   AGGAC   =    1.0000 GGA correlation
   ENCUTFOCK=  -1.0 apply spherical cutoff to Coloumb kernel
   NBANDSGWLOW=     1    first orbital included in HF term
   NBLOCK_FOCK=    64    blocking factor in FOCK_ACC
 Linear response parameters
   LEPSILON=     F    determine dielectric tensor
   LRPA    =     F    only Hartree local field effects (RPA)
   LNABLA  =     F    use nabla operator in PAW spheres
   LVEL    =     F    velocity operator in full k-point grid
   LINTERFAST=   F  fast interpolation
   KINTER  =     0    interpolate to denser k-point grid
   CSHIFT  =0.1000    complex shift for real part using Kramers Kronig
   OMEGAMAX=  -1.0    maximum frequency
   DEG_THRESHOLD= 0.2000000E-02 threshold for treating states as degnerate
   RTIME   =   -0.100 relaxation time in fs
  (WPLASMAI=    0.000 imaginary part of plasma frequency in eV, 0.658/RTIME)
   DFIELD  = 0.0000000 0.0000000 0.0000000 field for delta impulse in time
 
 Orbital magnetization related:
   ORBITALMAG=     F  switch on orbital magnetization
   LCHIMAG   =     F  perturbation theory with respect to B field
   DQ        =  0.001000  dq finite difference perturbation B field
   LLRAUG    =     F  two centre corrections for induced B field



--------------------------------------------------------------------------------------------------------


 Static calculation
 charge density and potential remain constant during run
 spin polarized calculation
 Conjugate gradient for all bands (Freysoldt, et al. PRB 79, 241103 (2009))
 perform sub-space diagonalisation
    before iterative eigenvector-optimisation
 no mixing
 using additional bands           20
 real space projection scheme for non local part
 use partial core corrections
 calculate Harris-corrections to forces 
   (improved forces if not selfconsistent)
 use gradient corrections 
 WARNING: stress and forces are not correct
  (second derivative of E(xc) not defined)
 use of overlap-Matrix (Vanderbilt PP)
 Gauss-broadening in eV      SIGMA  =   0.05


--------------------------------------------------------------------------------------------------------


  energy-cutoff  :      520.00
  volume of cell :      174.91
      direct lattice vectors                 reciprocal lattice vectors
     3.843738809  0.000000000  0.000000000     0.260163359  0.000000000  0.000000000
     0.000000000  5.896302421  0.000000000     0.000000000  0.169597814  0.000000000
     0.000000000  0.000000000  7.717455542     0.000000000  0.000000000  0.129576386

  length of vectors
     3.843738809  5.896302421  7.717455542     0.260163359  0.169597814  0.129576386


 
 old parameters found on file WAVECAR:
  energy-cutoff  :      520.00
  volume of cell :      174.91
      direct lattice vectors                 reciprocal lattice vectors
     3.843738809  0.000000000  0.000000000     0.260163359  0.000000000  0.000000000
     0.000000000  5.896302421  0.000000000     0.000000000  0.169597814  0.000000000
     0.000000000  0.000000000  7.717455542     0.000000000  0.000000000  0.129576386

  length of vectors

 
 k-points in units of 2pi/SCALE and weight: 0.040   7   4   3   24  0.040  172   12 
   0.00000000  0.00000000  0.00000000       0.012
   0.03716619  0.00000000  0.00000000       0.024
   0.07433239  0.00000000  0.00000000       0.024
   0.11149858  0.00000000  0.00000000       0.024
   0.00000000  0.04239945  0.00000000       0.024
   0.03716619  0.04239945  0.00000000       0.048
   0.07433239  0.04239945  0.00000000       0.048
   0.11149858  0.04239945  0.00000000       0.048
   0.00000000  0.08479891  0.00000000       0.012
   0.03716619  0.08479891  0.00000000       0.024
   0.07433239  0.08479891  0.00000000       0.024
   0.11149858  0.08479891  0.00000000       0.024
   0.00000000  0.00000000  0.04319213       0.024
   0.03716619  0.00000000  0.04319213       0.048
   0.07433239  0.00000000  0.04319213       0.048
   0.11149858  0.00000000  0.04319213       0.048
   0.00000000  0.04239945  0.04319213       0.048
   0.03716619  0.04239945  0.04319213       0.095
   0.07433239  0.04239945  0.04319213       0.095
   0.11149858  0.04239945  0.04319213       0.095
   0.00000000  0.08479891  0.04319213       0.024
   0.03716619  0.08479891  0.04319213       0.048
   0.07433239  0.08479891  0.04319213       0.048
   0.11149858  0.08479891  0.04319213       0.048
   0.00000000  0.00000000  0.00000000       0.000
   0.00684640  0.00000000  0.00000000       0.000
   0.01369281  0.00000000  0.00000000       0.000
   0.02053921  0.00000000  0.00000000       0.000
   0.02738562  0.00000000  0.00000000       0.000
   0.03423202  0.00000000  0.00000000       0.000
   0.04107843  0.00000000  0.00000000       0.000
   0.04792483  0.00000000  0.00000000       0.000
   0.05477123  0.00000000  0.00000000       0.000
   0.06161764  0.00000000  0.00000000       0.000
   0.06846404  0.00000000  0.00000000       0.000
   0.07531045  0.00000000  0.00000000       0.000
   0.08215685  0.00000000  0.00000000       0.000
   0.08900325  0.00000000  0.00000000       0.000
   0.09584966  0.00000000  0.00000000       0.000
   0.10269606  0.00000000  0.00000000       0.000
   0.10954247  0.00000000  0.00000000       0.000
   0.11638887  0.00000000  0.00000000       0.000
   0.12323528  0.00000000  0.00000000       0.000
   0.13008168  0.00000000  0.00000000       0.000
   0.13008168  0.00000000  0.00000000       0.000
   0.13008168  0.00706658  0.00000000       0.000
   0.13008168  0.01413315  0.00000000       0.000
   0.13008168  0.02119973  0.00000000       0.000
   0.13008168  0.02826630  0.00000000       0.000
   0.13008168  0.03533288  0.00000000       0.000
   0.13008168  0.04239945  0.00000000       0.000
   0.13008168  0.04946603  0.00000000       0.000
   0.13008168  0.05653260  0.00000000       0.000
   0.13008168  0.06359918  0.00000000       0.000
   0.13008168  0.07066576  0.00000000       0.000
   0.13008168  0.07773233  0.00000000       0.000
   0.13008168  0.08479891  0.00000000       0.000
   0.13008168  0.08479891  0.00000000       0.000
   0.12323528  0.08479891  0.00000000       0.000
   0.11638887  0.08479891  0.00000000       0.000
   0.10954247  0.08479891  0.00000000       0.000
   0.10269606  0.08479891  0.00000000       0.000
   0.09584966  0.08479891  0.00000000       0.000
   0.08900325  0.08479891  0.00000000       0.000
   0.08215685  0.08479891  0.00000000       0.000
   0.07531045  0.08479891  0.00000000       0.000
   0.06846404  0.08479891  0.00000000       0.000
   0.06161764  0.08479891  0.00000000       0.000
   0.05477123  0.08479891  0.00000000       0.000
   0.04792483  0.08479891  0.00000000       0.000
   0.04107843  0.08479891  0.00000000       0.000
   0.03423202  0.08479891  0.00000000       0.000
   0.02738562  0.08479891  0.00000000       0.000
   0.02053921  0.08479891  0.00000000       0.000
   0.01369281  0.08479891  0.00000000       0.000
   0.00684640  0.08479891  0.00000000       0.000
   0.00000000  0.08479891  0.00000000       0.000
   0.00000000  0.08479891  0.00000000       0.000
   0.00000000  0.07773233  0.00000000       0.000
   0.00000000  0.07066576  0.00000000       0.000
   0.00000000  0.06359918  0.00000000       0.000
   0.00000000  0.05653260  0.00000000       0.000
   0.00000000  0.04946603  0.00000000       0.000
   0.00000000  0.04239945  0.00000000       0.000
   0.00000000  0.03533288  0.00000000       0.000
   0.00000000  0.02826630  0.00000000       0.000
   0.00000000  0.02119973  0.00000000       0.000
   0.00000000  0.01413315  0.00000000       0.000
   0.00000000  0.00706658  0.00000000       0.000
   0.00000000  0.00000000  0.00000000       0.000
   0.00000000  0.00000000  0.00000000       0.000
   0.00000000  0.00000000  0.00719869       0.000
   0.00000000  0.00000000  0.01439738       0.000
   0.00000000  0.00000000  0.02159606       0.000
   0.00000000  0.00000000  0.02879475       0.000
   0.00000000  0.00000000  0.03599344       0.000
   0.00000000  0.00000000  0.04319213       0.000
   0.00000000  0.00000000  0.05039082       0.000
   0.00000000  0.00000000  0.05758950       0.000
   0.00000000  0.00000000  0.06478819       0.000
   0.00000000  0.00000000  0.06478819       0.000
   0.00684640  0.00000000  0.06478819       0.000
   0.01369281  0.00000000  0.06478819       0.000
   0.02053921  0.00000000  0.06478819       0.000
   0.02738562  0.00000000  0.06478819       0.000
   0.03423202  0.00000000  0.06478819       0.000
   0.04107843  0.00000000  0.06478819       0.000
   0.04792483  0.00000000  0.06478819       0.000
   0.05477123  0.00000000  0.06478819       0.000
   0.06161764  0.00000000  0.06478819       0.000
   0.06846404  0.00000000  0.06478819       0.000
   0.07531045  0.00000000  0.06478819       0.000
   0.08215685  0.00000000  0.06478819       0.000
   0.08900325  0.00000000  0.06478819       0.000
   0.09584966  0.00000000  0.06478819       0.000
   0.10269606  0.00000000  0.06478819       0.000
   0.10954247  0.00000000  0.06478819       0.000
   0.11638887  0.00000000  0.06478819       0.000
   0.12323528  0.00000000  0.06478819       0.000
   0.13008168  0.00000000  0.06478819       0.000
   0.13008168  0.00000000  0.06478819       0.000
   0.13008168  0.00706658  0.06478819       0.000
   0.13008168  0.01413315  0.06478819       0.000
   0.13008168  0.02119973  0.06478819       0.000
   0.13008168  0.02826630  0.06478819       0.000
   0.13008168  0.03533288  0.06478819       0.000
   0.13008168  0.04239945  0.06478819       0.000
   0.13008168  0.04946603  0.06478819       0.000
   0.13008168  0.05653260  0.06478819       0.000
   0.13008168  0.06359918  0.06478819       0.000
   0.13008168  0.07066576  0.06478819       0.000
   0.13008168  0.07773233  0.06478819       0.000
   0.13008168  0.08479891  0.06478819       0.000
   0.13008168  0.08479891  0.06478819       0.000
   0.12323528  0.08479891  0.06478819       0.000
   0.11638887  0.08479891  0.06478819       0.000
   0.10954247  0.08479891  0.06478819       0.000
   0.10269606  0.08479891  0.06478819       0.000
   0.09584966  0.08479891  0.06478819       0.000
   0.08900325  0.08479891  0.06478819       0.000
   0.08215685  0.08479891  0.06478819       0.000
   0.07531045  0.08479891  0.06478819       0.000
   0.06846404  0.08479891  0.06478819       0.000
   0.06161764  0.08479891  0.06478819       0.000
   0.05477123  0.08479891  0.06478819       0.000
   0.04792483  0.08479891  0.06478819       0.000
   0.04107843  0.08479891  0.06478819       0.000
   0.03423202  0.08479891  0.06478819       0.000
   0.02738562  0.08479891  0.06478819       0.000
   0.02053921  0.08479891  0.06478819       0.000
   0.01369281  0.08479891  0.06478819       0.000
   0.00684640  0.08479891  0.06478819       0.000
   0.00000000  0.08479891  0.06478819       0.000
   0.00000000  0.08479891  0.06478819       0.000
   0.00000000  0.07773233  0.06478819       0.000
   0.00000000  0.07066576  0.06478819       0.000
   0.00000000  0.06359918  0.06478819       0.000
   0.00000000  0.05653260  0.06478819       0.000
   0.00000000  0.04946603  0.06478819       0.000
   0.00000000  0.04239945  0.06478819       0.000
   0.00000000  0.03533288  0.06478819       0.000
   0.00000000  0.02826630  0.06478819       0.000
   0.00000000  0.02119973  0.06478819       0.000
   0.00000000  0.01413315  0.06478819       0.000
   0.00000000  0.00706658  0.06478819       0.000
   0.00000000  0.00000000  0.06478819       0.000
   0.13008168  0.00000000  0.00000000       0.000
   0.13008168  0.00000000  0.00719869       0.000
   0.13008168  0.00000000  0.01439738       0.000
   0.13008168  0.00000000  0.02159606       0.000
   0.13008168  0.00000000  0.02879475       0.000
   0.13008168  0.00000000  0.03599344       0.000
   0.13008168  0.00000000  0.04319213       0.000
   0.13008168  0.00000000  0.05039082       0.000
   0.13008168  0.00000000  0.05758950       0.000
   0.13008168  0.00000000  0.06478819       0.000
   0.00000000  0.08479891  0.00000000       0.000
   0.00000000  0.08479891  0.00719869       0.000
   0.00000000  0.08479891  0.01439738       0.000
   0.00000000  0.08479891  0.02159606       0.000
   0.00000000  0.08479891  0.02879475       0.000
   0.00000000  0.08479891  0.03599344       0.000
   0.00000000  0.08479891  0.04319213       0.000
   0.00000000  0.08479891  0.05039082       0.000
   0.00000000  0.08479891  0.05758950       0.000
   0.00000000  0.08479891  0.06478819       0.000
   0.13008168  0.08479891  0.00000000       0.000
   0.13008168  0.08479891  0.00719869       0.000
   0.13008168  0.08479891  0.01439738       0.000
   0.13008168  0.08479891  0.02159606       0.000
   0.13008168  0.08479891  0.02879475       0.000
   0.13008168  0.08479891  0.03599344       0.000
   0.13008168  0.08479891  0.04319213       0.000
   0.13008168  0.08479891  0.05039082       0.000
   0.13008168  0.08479891  0.05758950       0.000
   0.13008168  0.08479891  0.06478819       0.000
 
 k-points in reciprocal lattice and weights: 0.040   7   4   3   24  0.040  172   12 
   0.00000000  0.00000000  0.00000000       0.012
   0.14285714  0.00000000  0.00000000       0.024
   0.28571429  0.00000000  0.00000000       0.024
   0.42857143  0.00000000  0.00000000       0.024
   0.00000000  0.25000000  0.00000000       0.024
   0.14285714  0.25000000  0.00000000       0.048
   0.28571429  0.25000000  0.00000000       0.048
   0.42857143  0.25000000  0.00000000       0.048
   0.00000000  0.50000000  0.00000000       0.012
   0.14285714  0.50000000  0.00000000       0.024
   0.28571429  0.50000000  0.00000000       0.024
   0.42857143  0.50000000  0.00000000       0.024
   0.00000000  0.00000000  0.33333333       0.024
   0.14285714  0.00000000  0.33333333       0.048
   0.28571429  0.00000000  0.33333333       0.048
   0.42857143  0.00000000  0.33333333       0.048
   0.00000000  0.25000000  0.33333333       0.048
   0.14285714  0.25000000  0.33333333       0.095
   0.28571429  0.25000000  0.33333333       0.095
   0.42857143  0.25000000  0.33333333       0.095
   0.00000000  0.50000000  0.33333333       0.024
   0.14285714  0.50000000  0.33333333       0.048
   0.28571429  0.50000000  0.33333333       0.048
   0.42857143  0.50000000  0.33333333       0.048
   0.00000000  0.00000000  0.00000000       0.000
   0.02631579  0.00000000  0.00000000       0.000
   0.05263158  0.00000000  0.00000000       0.000
   0.07894737  0.00000000  0.00000000       0.000
   0.10526316  0.00000000  0.00000000       0.000
   0.13157895  0.00000000  0.00000000       0.000
   0.15789474  0.00000000  0.00000000       0.000
   0.18421053  0.00000000  0.00000000       0.000
   0.21052632  0.00000000  0.00000000       0.000
   0.23684211  0.00000000  0.00000000       0.000
   0.26315789  0.00000000  0.00000000       0.000
   0.28947368  0.00000000  0.00000000       0.000
   0.31578947  0.00000000  0.00000000       0.000
   0.34210526  0.00000000  0.00000000       0.000
   0.36842105  0.00000000  0.00000000       0.000
   0.39473684  0.00000000  0.00000000       0.000
   0.42105263  0.00000000  0.00000000       0.000
   0.44736842  0.00000000  0.00000000       0.000
   0.47368421  0.00000000  0.00000000       0.000
   0.50000000  0.00000000  0.00000000       0.000
   0.50000000  0.00000000  0.00000000       0.000
   0.50000000  0.04166667  0.00000000       0.000
   0.50000000  0.08333333  0.00000000       0.000
   0.50000000  0.12500000  0.00000000       0.000
   0.50000000  0.16666667  0.00000000       0.000
   0.50000000  0.20833333  0.00000000       0.000
   0.50000000  0.25000000  0.00000000       0.000
   0.50000000  0.29166667  0.00000000       0.000
   0.50000000  0.33333333  0.00000000       0.000
   0.50000000  0.37500000  0.00000000       0.000
   0.50000000  0.41666667  0.00000000       0.000
   0.50000000  0.45833333  0.00000000       0.000
   0.50000000  0.50000000  0.00000000       0.000
   0.50000000  0.50000000  0.00000000       0.000
   0.47368421  0.50000000  0.00000000       0.000
   0.44736842  0.50000000  0.00000000       0.000
   0.42105263  0.50000000  0.00000000       0.000
   0.39473684  0.50000000  0.00000000       0.000
   0.36842105  0.50000000  0.00000000       0.000
   0.34210526  0.50000000  0.00000000       0.000
   0.31578947  0.50000000  0.00000000       0.000
   0.28947368  0.50000000  0.00000000       0.000
   0.26315789  0.50000000  0.00000000       0.000
   0.23684211  0.50000000  0.00000000       0.000
   0.21052632  0.50000000  0.00000000       0.000
   0.18421053  0.50000000  0.00000000       0.000
   0.15789474  0.50000000  0.00000000       0.000
   0.13157895  0.50000000  0.00000000       0.000
   0.10526316  0.50000000  0.00000000       0.000
   0.07894737  0.50000000  0.00000000       0.000
   0.05263158  0.50000000  0.00000000       0.000
   0.02631579  0.50000000  0.00000000       0.000
   0.00000000  0.50000000  0.00000000       0.000
   0.00000000  0.50000000  0.00000000       0.000
   0.00000000  0.45833333  0.00000000       0.000
   0.00000000  0.41666667  0.00000000       0.000
   0.00000000  0.37500000  0.00000000       0.000
   0.00000000  0.33333333  0.00000000       0.000
   0.00000000  0.29166667  0.00000000       0.000
   0.00000000  0.25000000  0.00000000       0.000
   0.00000000  0.20833333  0.00000000       0.000
   0.00000000  0.16666667  0.00000000       0.000
   0.00000000  0.12500000  0.00000000       0.000
   0.00000000  0.08333333  0.00000000       0.000
   0.00000000  0.04166667  0.00000000       0.000
   0.00000000  0.00000000  0.00000000       0.000
   0.00000000  0.00000000  0.00000000       0.000
   0.00000000  0.00000000  0.05555556       0.000
   0.00000000  0.00000000  0.11111111       0.000
   0.00000000  0.00000000  0.16666667       0.000
   0.00000000  0.00000000  0.22222222       0.000
   0.00000000  0.00000000  0.27777778       0.000
   0.00000000  0.00000000  0.33333333       0.000
   0.00000000  0.00000000  0.38888889       0.000
   0.00000000  0.00000000  0.44444444       0.000
   0.00000000  0.00000000  0.50000000       0.000
   0.00000000  0.00000000  0.50000000       0.000
   0.02631579  0.00000000  0.50000000       0.000
   0.05263158  0.00000000  0.50000000       0.000
   0.07894737  0.00000000  0.50000000       0.000
   0.10526316  0.00000000  0.50000000       0.000
   0.13157895  0.00000000  0.50000000       0.000
   0.15789474  0.00000000  0.50000000       0.000
   0.18421053  0.00000000  0.50000000       0.000
   0.21052632  0.00000000  0.50000000       0.000
   0.23684211  0.00000000  0.50000000       0.000
   0.26315789  0.00000000  0.50000000       0.000
   0.28947368  0.00000000  0.50000000       0.000
   0.31578947  0.00000000  0.50000000       0.000
   0.34210526  0.00000000  0.50000000       0.000
   0.36842105  0.00000000  0.50000000       0.000
   0.39473684  0.00000000  0.50000000       0.000
   0.42105263  0.00000000  0.50000000       0.000
   0.44736842  0.00000000  0.50000000       0.000
   0.47368421  0.00000000  0.50000000       0.000
   0.50000000  0.00000000  0.50000000       0.000
   0.50000000  0.00000000  0.50000000       0.000
   0.50000000  0.04166667  0.50000000       0.000
   0.50000000  0.08333333  0.50000000       0.000
   0.50000000  0.12500000  0.50000000       0.000
   0.50000000  0.16666667  0.50000000       0.000
   0.50000000  0.20833333  0.50000000       0.000
   0.50000000  0.25000000  0.50000000       0.000
   0.50000000  0.29166667  0.50000000       0.000
   0.50000000  0.33333333  0.50000000       0.000
   0.50000000  0.37500000  0.50000000       0.000
   0.50000000  0.41666667  0.50000000       0.000
   0.50000000  0.45833333  0.50000000       0.000
   0.50000000  0.50000000  0.50000000       0.000
   0.50000000  0.50000000  0.50000000       0.000
   0.47368421  0.50000000  0.50000000       0.000
   0.44736842  0.50000000  0.50000000       0.000
   0.42105263  0.50000000  0.50000000       0.000
   0.39473684  0.50000000  0.50000000       0.000
   0.36842105  0.50000000  0.50000000       0.000
   0.34210526  0.50000000  0.50000000       0.000
   0.31578947  0.50000000  0.50000000       0.000
   0.28947368  0.50000000  0.50000000       0.000
   0.26315789  0.50000000  0.50000000       0.000
   0.23684211  0.50000000  0.50000000       0.000
   0.21052632  0.50000000  0.50000000       0.000
   0.18421053  0.50000000  0.50000000       0.000
   0.15789474  0.50000000  0.50000000       0.000
   0.13157895  0.50000000  0.50000000       0.000
   0.10526316  0.50000000  0.50000000       0.000
   0.07894737  0.50000000  0.50000000       0.000
   0.05263158  0.50000000  0.50000000       0.000
   0.02631579  0.50000000  0.50000000       0.000
   0.00000000  0.50000000  0.50000000       0.000
   0.00000000  0.50000000  0.50000000       0.000
   0.00000000  0.45833333  0.50000000       0.000
   0.00000000  0.41666667  0.50000000       0.000
   0.00000000  0.37500000  0.50000000       0.000
   0.00000000  0.33333333  0.50000000       0.000
   0.00000000  0.29166667  0.50000000       0.000
   0.00000000  0.25000000  0.50000000       0.000
   0.00000000  0.20833333  0.50000000       0.000
   0.00000000  0.16666667  0.50000000       0.000
   0.00000000  0.12500000  0.50000000       0.000
   0.00000000  0.08333333  0.50000000       0.000
   0.00000000  0.04166667  0.50000000       0.000
   0.00000000  0.00000000  0.50000000       0.000
   0.50000000  0.00000000  0.00000000       0.000
   0.50000000  0.00000000  0.05555556       0.000
   0.50000000  0.00000000  0.11111111       0.000
   0.50000000  0.00000000  0.16666667       0.000
   0.50000000  0.00000000  0.22222222       0.000
   0.50000000  0.00000000  0.27777778       0.000
   0.50000000  0.00000000  0.33333333       0.000
   0.50000000  0.00000000  0.38888889       0.000
   0.50000000  0.00000000  0.44444444       0.000
   0.50000000  0.00000000  0.50000000       0.000
   0.00000000  0.50000000  0.00000000       0.000
   0.00000000  0.50000000  0.05555556       0.000
   0.00000000  0.50000000  0.11111111       0.000
   0.00000000  0.50000000  0.16666667       0.000
   0.00000000  0.50000000  0.22222222       0.000
   0.00000000  0.50000000  0.27777778       0.000
   0.00000000  0.50000000  0.33333333       0.000
   0.00000000  0.50000000  0.38888889       0.000
   0.00000000  0.50000000  0.44444444       0.000
   0.00000000  0.50000000  0.50000000       0.000
   0.50000000  0.50000000  0.00000000       0.000
   0.50000000  0.50000000  0.05555556       0.000
   0.50000000  0.50000000  0.11111111       0.000
   0.50000000  0.50000000  0.16666667       0.000
   0.50000000  0.50000000  0.22222222       0.000
   0.50000000  0.50000000  0.27777778       0.000
   0.50000000  0.50000000  0.33333333       0.000
   0.50000000  0.50000000  0.38888889       0.000
   0.50000000  0.50000000  0.44444444       0.000
   0.50000000  0.50000000  0.50000000       0.000
 
 position of ions in fractional coordinates (direct lattice) 
   0.14038136  0.67365623  0.06455169
   0.35961864  0.17365623  0.43544831
   0.85961864  0.32634377  0.56455169
   0.64038136  0.82634377  0.93544831
   0.85961864  0.32634377  0.93544831
   0.64038136  0.82634377  0.56455169
   0.14038136  0.67365623  0.43544831
   0.35961864  0.17365623  0.06455169
   0.64080351  0.53644256  0.25000000
   0.85919649  0.03644256  0.25000000
   0.35919649  0.46355744  0.75000000
   0.14080351  0.96355744  0.75000000
   0.36367836  0.86685877  0.25000000
   0.13632164  0.36685877  0.25000000
   0.63632164  0.13314123  0.75000000
   0.86367836  0.63314123  0.75000000
 
 position of ions in cartesian coordinates  (Angst):
   0.53958929  3.97208087  0.49817480
   1.38228011  1.02392966  3.36055297
   3.30414952  1.92422155  4.35690258
   2.46145870  4.87237276  7.21928074
   3.30414952  1.92422155  7.21928074
   2.46145870  4.87237276  4.35690258
   0.53958929  3.97208087  3.36055297
   1.38228011  1.02392966  0.49817480
   2.46308132  3.16302756  1.92936389
   3.30252690  0.21487634  1.92936389
   1.38065749  2.73327487  5.78809166
   0.54121191  5.68142608  5.78809166
   1.39788461  5.11126144  1.92936389
   0.52398479  2.16311023  1.92936389
   2.44585419  0.78504098  5.78809166
   3.31975402  3.73319219  5.78809166
 


--------------------------------------------------------------------------------------------------------


 k-point  1 :   0.0000 0.0000 0.0000  plane waves:    4651
 k-point  2 :   0.1429 0.0000 0.0000  plane waves:    4717
 k-point  3 :   0.2857 0.0000 0.0000  plane waves:    4714
 k-point  4 :   0.4286 0.0000 0.0000  plane waves:    4694
 k-point  5 :   0.0000 0.2500 0.0000  plane waves:    4710
 k-point  6 :   0.1429 0.2500 0.0000  plane waves:    4698
 k-point  7 :   0.2857 0.2500 0.0000  plane waves:    4710
 k-point  8 :   0.4286 0.2500 0.0000  plane waves:    4716
 k-point  9 :   0.0000 0.5000 0.0000  plane waves:    4698
 k-point 10 :   0.1429 0.5000 0.0000  plane waves:    4710
 k-point 11 :   0.2857 0.5000 0.0000  plane waves:    4718
 k-point 12 :   0.4286 0.5000 0.0000  plane waves:    4738
 k-point 13 :   0.0000 0.0000 0.3333  plane waves:    4679
 k-point 14 :   0.1429 0.0000 0.3333  plane waves:    4682
 k-point 15 :   0.2857 0.0000 0.3333  plane waves:    4723
 k-point 16 :   0.4286 0.0000 0.3333  plane waves:    4717
 k-point 17 :   0.0000 0.2500 0.3333  plane waves:    4704
 k-point 18 :   0.1429 0.2500 0.3333  plane waves:    4709
 k-point 19 :   0.2857 0.2500 0.3333  plane waves:    4714
 k-point 20 :   0.4286 0.2500 0.3333  plane waves:    4713
 k-point 21 :   0.0000 0.5000 0.3333  plane waves:    4718
 k-point 22 :   0.1429 0.5000 0.3333  plane waves:    4722
 k-point 23 :   0.2857 0.5000 0.3333  plane waves:    4710
 k-point 24 :   0.4286 0.5000 0.3333  plane waves:    4704
 k-point 25 :   0.0000 0.0000 0.0000  plane waves:    4651
 k-point 26 :   0.0263 0.0000 0.0000  plane waves:    4649
 k-point 27 :   0.0526 0.0000 0.0000  plane waves:    4671
 k-point 28 :   0.0789 0.0000 0.0000  plane waves:    4689
 k-point 29 :   0.1053 0.0000 0.0000  plane waves:    4693
 k-point 30 :   0.1316 0.0000 0.0000  plane waves:    4695
 k-point 31 :   0.1579 0.0000 0.0000  plane waves:    4716
 k-point 32 :   0.1842 0.0000 0.0000  plane waves:    4708
 k-point 33 :   0.2105 0.0000 0.0000  plane waves:    4708
 k-point 34 :   0.2368 0.0000 0.0000  plane waves:    4712
 k-point 35 :   0.2632 0.0000 0.0000  plane waves:    4714
 k-point 36 :   0.2895 0.0000 0.0000  plane waves:    4714
 k-point 37 :   0.3158 0.0000 0.0000  plane waves:    4712
 k-point 38 :   0.3421 0.0000 0.0000  plane waves:    4704
 k-point 39 :   0.3684 0.0000 0.0000  plane waves:    4708
 k-point 40 :   0.3947 0.0000 0.0000  plane waves:    4716
 k-point 41 :   0.4211 0.0000 0.0000  plane waves:    4702
 k-point 42 :   0.4474 0.0000 0.0000  plane waves:    4702
 k-point 43 :   0.4737 0.0000 0.0000  plane waves:    4706
 k-point 44 :   0.5000 0.0000 0.0000  plane waves:    4702
 k-point 45 :   0.5000 0.0000 0.0000  plane waves:    4702
 k-point 46 :   0.5000 0.0417 0.0000  plane waves:    4696
 k-point 47 :   0.5000 0.0833 0.0000  plane waves:    4710
 k-point 48 :   0.5000 0.1250 0.0000  plane waves:    4718
 k-point 49 :   0.5000 0.1667 0.0000  plane waves:    4722
 k-point 50 :   0.5000 0.2083 0.0000  plane waves:    4730
 k-point 51 :   0.5000 0.2500 0.0000  plane waves:    4730
 k-point 52 :   0.5000 0.2917 0.0000  plane waves:    4710
 k-point 53 :   0.5000 0.3333 0.0000  plane waves:    4718
 k-point 54 :   0.5000 0.3750 0.0000  plane waves:    4734
 k-point 55 :   0.5000 0.4167 0.0000  plane waves:    4730
 k-point 56 :   0.5000 0.4583 0.0000  plane waves:    4742
 k-point 57 :   0.5000 0.5000 0.0000  plane waves:    4756
 k-point 58 :   0.5000 0.5000 0.0000  plane waves:    4756
 k-point 59 :   0.4737 0.5000 0.0000  plane waves:    4772
 k-point 60 :   0.4474 0.5000 0.0000  plane waves:    4752
 k-point 61 :   0.4211 0.5000 0.0000  plane waves:    4738
 k-point 62 :   0.3947 0.5000 0.0000  plane waves:    4738
 k-point 63 :   0.3684 0.5000 0.0000  plane waves:    4730
 k-point 64 :   0.3421 0.5000 0.0000  plane waves:    4738
 k-point 65 :   0.3158 0.5000 0.0000  plane waves:    4722
 k-point 66 :   0.2895 0.5000 0.0000  plane waves:    4718
 k-point 67 :   0.2632 0.5000 0.0000  plane waves:    4714
 k-point 68 :   0.2368 0.5000 0.0000  plane waves:    4708
 k-point 69 :   0.2105 0.5000 0.0000  plane waves:    4712
 k-point 70 :   0.1842 0.5000 0.0000  plane waves:    4708
 k-point 71 :   0.1579 0.5000 0.0000  plane waves:    4714
 k-point 72 :   0.1316 0.5000 0.0000  plane waves:    4696
 k-point 73 :   0.1053 0.5000 0.0000  plane waves:    4704
 k-point 74 :   0.0789 0.5000 0.0000  plane waves:    4698
 k-point 75 :   0.0526 0.5000 0.0000  plane waves:    4708
 k-point 76 :   0.0263 0.5000 0.0000  plane waves:    4706
 k-point 77 :   0.0000 0.5000 0.0000  plane waves:    4698
 k-point 78 :   0.0000 0.5000 0.0000  plane waves:    4698
 k-point 79 :   0.0000 0.4583 0.0000  plane waves:    4716
 k-point 80 :   0.0000 0.4167 0.0000  plane waves:    4710
 k-point 81 :   0.0000 0.3750 0.0000  plane waves:    4720
 k-point 82 :   0.0000 0.3333 0.0000  plane waves:    4730
 k-point 83 :   0.0000 0.2917 0.0000  plane waves:    4726
 k-point 84 :   0.0000 0.2500 0.0000  plane waves:    4710
 k-point 85 :   0.0000 0.2083 0.0000  plane waves:    4712
 k-point 86 :   0.0000 0.1667 0.0000  plane waves:    4696
 k-point 87 :   0.0000 0.1250 0.0000  plane waves:    4664
 k-point 88 :   0.0000 0.0833 0.0000  plane waves:    4660
 k-point 89 :   0.0000 0.0417 0.0000  plane waves:    4658
 k-point 90 :   0.0000 0.0000 0.0000  plane waves:    4651
 k-point 91 :   0.0000 0.0000 0.0000  plane waves:    4651
 k-point 92 :   0.0000 0.0000 0.0556  plane waves:    4657
 k-point 93 :   0.0000 0.0000 0.1111  plane waves:    4683
 k-point 94 :   0.0000 0.0000 0.1667  plane waves:    4681
 k-point 95 :   0.0000 0.0000 0.2222  plane waves:    4679
 k-point 96 :   0.0000 0.0000 0.2778  plane waves:    4681
 k-point 97 :   0.0000 0.0000 0.3333  plane waves:    4679
 k-point 98 :   0.0000 0.0000 0.3889  plane waves:    4688
 k-point 99 :   0.0000 0.0000 0.4444  plane waves:    4704
 k-point ** :   0.0000 0.0000 0.5000  plane waves:    4712
 k-point ** :   0.0000 0.0000 0.5000  plane waves:    4712
 k-point ** :   0.0263 0.0000 0.5000  plane waves:    4704
 k-point ** :   0.0526 0.0000 0.5000  plane waves:    4690
 k-point ** :   0.0789 0.0000 0.5000  plane waves:    4672
 k-point ** :   0.1053 0.0000 0.5000  plane waves:    4690
 k-point ** :   0.1316 0.0000 0.5000  plane waves:    4694
 k-point ** :   0.1579 0.0000 0.5000  plane waves:    4684
 k-point ** :   0.1842 0.0000 0.5000  plane waves:    4700
 k-point ** :   0.2105 0.0000 0.5000  plane waves:    4712
 k-point ** :   0.2368 0.0000 0.5000  plane waves:    4706
 k-point ** :   0.2632 0.0000 0.5000  plane waves:    4712
 k-point ** :   0.2895 0.0000 0.5000  plane waves:    4722
 k-point ** :   0.3158 0.0000 0.5000  plane waves:    4726
 k-point ** :   0.3421 0.0000 0.5000  plane waves:    4726
 k-point ** :   0.3684 0.0000 0.5000  plane waves:    4720
 k-point ** :   0.3947 0.0000 0.5000  plane waves:    4726
 k-point ** :   0.4211 0.0000 0.5000  plane waves:    4720
 k-point ** :   0.4474 0.0000 0.5000  plane waves:    4710
 k-point ** :   0.4737 0.0000 0.5000  plane waves:    4702
 k-point ** :   0.5000 0.0000 0.5000  plane waves:    4696
 k-point ** :   0.5000 0.0000 0.5000  plane waves:    4696
 k-point ** :   0.5000 0.0417 0.5000  plane waves:    4700
 k-point ** :   0.5000 0.0833 0.5000  plane waves:    4720
 k-point ** :   0.5000 0.1250 0.5000  plane waves:    4716
 k-point ** :   0.5000 0.1667 0.5000  plane waves:    4716
 k-point ** :   0.5000 0.2083 0.5000  plane waves:    4704
 k-point ** :   0.5000 0.2500 0.5000  plane waves:    4716
 k-point ** :   0.5000 0.2917 0.5000  plane waves:    4720
 k-point ** :   0.5000 0.3333 0.5000  plane waves:    4708
 k-point ** :   0.5000 0.3750 0.5000  plane waves:    4712
 k-point ** :   0.5000 0.4167 0.5000  plane waves:    4704
 k-point ** :   0.5000 0.4583 0.5000  plane waves:    4700
 k-point ** :   0.5000 0.5000 0.5000  plane waves:    4712
 k-point ** :   0.5000 0.5000 0.5000  plane waves:    4712
 k-point ** :   0.4737 0.5000 0.5000  plane waves:    4720
 k-point ** :   0.4474 0.5000 0.5000  plane waves:    4708
 k-point ** :   0.4211 0.5000 0.5000  plane waves:    4700
 k-point ** :   0.3947 0.5000 0.5000  plane waves:    4700
 k-point ** :   0.3684 0.5000 0.5000  plane waves:    4704
 k-point ** :   0.3421 0.5000 0.5000  plane waves:    4696
 k-point ** :   0.3158 0.5000 0.5000  plane waves:    4700
 k-point ** :   0.2895 0.5000 0.5000  plane waves:    4708
 k-point ** :   0.2632 0.5000 0.5000  plane waves:    4720
 k-point ** :   0.2368 0.5000 0.5000  plane waves:    4708
 k-point ** :   0.2105 0.5000 0.5000  plane waves:    4696
 k-point ** :   0.1842 0.5000 0.5000  plane waves:    4700
 k-point ** :   0.1579 0.5000 0.5000  plane waves:    4720
 k-point ** :   0.1316 0.5000 0.5000  plane waves:    4716
 k-point ** :   0.1053 0.5000 0.5000  plane waves:    4724
 k-point ** :   0.0789 0.5000 0.5000  plane waves:    4720
 k-point ** :   0.0526 0.5000 0.5000  plane waves:    4720
 k-point ** :   0.0263 0.5000 0.5000  plane waves:    4716
 k-point ** :   0.0000 0.5000 0.5000  plane waves:    4716
 k-point ** :   0.0000 0.5000 0.5000  plane waves:    4716
 k-point ** :   0.0000 0.4583 0.5000  plane waves:    4714
 k-point ** :   0.0000 0.4167 0.5000  plane waves:    4716
 k-point ** :   0.0000 0.3750 0.5000  plane waves:    4712
 k-point ** :   0.0000 0.3333 0.5000  plane waves:    4716
 k-point ** :   0.0000 0.2917 0.5000  plane waves:    4716
 k-point ** :   0.0000 0.2500 0.5000  plane waves:    4726
 k-point ** :   0.0000 0.2083 0.5000  plane waves:    4730
 k-point ** :   0.0000 0.1667 0.5000  plane waves:    4706
 k-point ** :   0.0000 0.1250 0.5000  plane waves:    4704
 k-point ** :   0.0000 0.0833 0.5000  plane waves:    4694
 k-point ** :   0.0000 0.0417 0.5000  plane waves:    4696
 k-point ** :   0.0000 0.0000 0.5000  plane waves:    4712
 k-point ** :   0.5000 0.0000 0.0000  plane waves:    4702
 k-point ** :   0.5000 0.0000 0.0556  plane waves:    4702
 k-point ** :   0.5000 0.0000 0.1111  plane waves:    4694
[...]
     25       5.0892      1.00000
     26       5.0892      1.00000
     27       5.0892      1.00000
     28       5.0892      1.00000
     29       5.4901      1.00000
     30       5.4901      1.00000
     31       5.4901      1.00000
     32       5.4901      1.00000
     33       5.7428      1.00000
     34       5.7428      1.00000
     35       5.7428      1.00000
     36       5.7428      1.00000
     37       6.4083      1.00000
     38       6.4083      1.00000
     39       6.4083      1.00000
     40       6.4083      1.00000
     41       8.3906      0.00000
     42       8.3906      0.00000
     43       8.3906      0.00000
     44       8.3906      0.00000
     45       9.2701      0.00000
     46       9.2701      0.00000
     47       9.2701      0.00000
     48       9.2701      0.00000
     49       9.4468      0.00000
     50       9.4468      0.00000
     51       9.4468      0.00000
     52       9.4468      0.00000
     53      10.0919      0.00000
     54      10.0919      0.00000
     55      10.0919      0.00000
     56      10.0919      0.00000
     57      10.3295      0.00000
     58      10.3295      0.00000
     59      10.3295      0.00000
     60      10.3295      0.00000
     61      10.9202      0.00000
     62      10.9202      0.00000
     63      10.9202      0.00000
     64      10.9202      0.00000
     65      11.3249      0.00000
     66      11.3249      0.00000
     67      11.3249      0.00000
     68      11.3249      0.00000
     69      11.6157      0.00000
     70      11.6157      0.00000
     71      11.6157      0.00000
     72      11.6157      0.00000


--------------------------------------------------------------------------------------------------------


 soft charge-density along one line, spin component           1
         0         1         2         3         4         5         6         7         8         9
 total charge-density along one line
 
 soft charge-density along one line, spin component           2
         0         1         2         3         4         5         6         7         8         9
 total charge-density along one line
 
 pseudopotential strength for first ion, spin component:           1
 -3.183   0.039   0.027  -0.006  -0.016  -3.805   0.038   0.026
  0.039  -3.235   0.023  -0.016  -0.084   0.038  -3.854   0.022
  0.027   0.023  -3.257  -0.006  -0.063   0.026   0.022  -3.878
 -0.006  -0.016  -0.006  -3.090   0.009  -0.007  -0.016  -0.006
 -0.016  -0.084  -0.063   0.009  -3.169  -0.016  -0.082  -0.061
 -3.805   0.038   0.026  -0.007  -0.016  -4.383   0.037   0.025
  0.038  -3.854   0.022  -0.016  -0.082   0.037  -4.430   0.022
  0.026   0.022  -3.878  -0.006  -0.061   0.025   0.022  -4.454
 -0.007  -0.016  -0.006  -3.714   0.008  -0.008  -0.015  -0.006
 -0.016  -0.082  -0.061   0.008  -3.791  -0.016  -0.081  -0.059
  0.006  -0.011   0.006  -0.005  -0.024   0.006  -0.010   0.006
  0.012  -0.019   0.012  -0.010  -0.046   0.012  -0.019   0.011
 -0.002   0.005   0.003  -0.000   0.005  -0.002   0.005   0.002
 -0.000  -0.005   0.005  -0.003  -0.001  -0.000  -0.005   0.006
 -0.004  -0.000   0.001   0.004  -0.002  -0.004  -0.000   0.001
 -0.003   0.006   0.003  -0.000   0.005  -0.002   0.006   0.002
 -0.000  -0.005   0.006  -0.003  -0.000  -0.000  -0.005   0.007
 -0.004  -0.000   0.001   0.005  -0.003  -0.004  -0.000   0.001
 pseudopotential strength for first ion, spin component:           2
 -1.180  -0.032   0.013   0.113   0.032  -1.867  -0.032   0.013
 -0.032  -1.274   0.002  -0.025   0.084  -0.032  -1.961   0.002
  0.013   0.002  -1.115   0.037  -0.026   0.013   0.002  -1.802
  0.113  -0.025   0.037  -1.309   0.029   0.112  -0.024   0.037
  0.032   0.084  -0.026   0.029  -1.199   0.031   0.083  -0.026
 -1.867  -0.032   0.013   0.112   0.031  -2.508  -0.032   0.012
 -0.032  -1.961   0.002  -0.024   0.083  -0.032  -2.601   0.002
  0.013   0.002  -1.802   0.037  -0.026   0.012   0.002  -2.444
  0.112  -0.024   0.037  -1.996   0.029   0.111  -0.024   0.037
  0.031   0.083  -0.026   0.029  -1.886   0.031   0.083  -0.026
  0.003   0.001   0.003   0.000   0.001   0.004   0.001   0.003
  0.006   0.003   0.005   0.001   0.002   0.006   0.003   0.005
 -0.002   0.001   0.004  -0.000   0.008  -0.002   0.001   0.004
 -0.000  -0.008   0.001  -0.002  -0.001  -0.000  -0.007   0.001
 -0.007  -0.000   0.001  -0.000  -0.002  -0.007  -0.000   0.000
 -0.002   0.001   0.005  -0.000   0.009  -0.002   0.001   0.004
 -0.000  -0.008   0.001  -0.002  -0.000  -0.000  -0.008   0.001
 -0.008  -0.000   0.001  -0.000  -0.002  -0.007  -0.000   0.001
 total augmentation occupancy for first ion, spin component:           1
  1.400   0.000   0.000   0.000   0.000   0.000   0.000   0.000   0.000   0.000   0.000   0.000   0.000   0.000   0.000   0.000
  0.000   1.400   0.000   0.000   0.000   0.000   0.000   0.000   0.000   0.000   0.000   0.000   0.000   0.000   0.000   0.000
  0.000   0.000   1.400   0.000   0.000   0.000   0.000   0.000   0.000   0.000   0.000   0.000   0.000   0.000   0.000   0.000
  0.000   0.000   0.000   1.400   0.000   0.000   0.000   0.000   0.000   0.000   0.000   0.000   0.000   0.000   0.000   0.000
  0.000   0.000   0.000   0.000   1.400   0.000   0.000   0.000   0.000   0.000   0.000   0.000   0.000   0.000   0.000   0.000
  0.000   0.000   0.000   0.000   0.000   0.000   0.000   0.000   0.000   0.000   0.000   0.000   0.000   0.000   0.000   0.000
  0.000   0.000   0.000   0.000   0.000   0.000   0.000   0.000   0.000   0.000   0.000   0.000   0.000   0.000   0.000   0.000
  0.000   0.000   0.000   0.000   0.000   0.000   0.000   0.000   0.000   0.000   0.000   0.000   0.000   0.000   0.000   0.000
  0.000   0.000   0.000   0.000   0.000   0.000   0.000   0.000   0.000   0.000   0.000   0.000   0.000   0.000   0.000   0.000
  0.000   0.000   0.000   0.000   0.000   0.000   0.000   0.000   0.000   0.000   0.000   0.000   0.000   0.000   0.000   0.000
  0.000   0.000   0.000   0.000   0.000   0.000   0.000   0.000   0.000   0.000   1.000   0.000   0.000   0.000   0.000   0.000
  0.000   0.000   0.000   0.000   0.000   0.000   0.000   0.000   0.000   0.000   0.000   0.000   0.000   0.000   0.000   0.000
  0.000   0.000   0.000   0.000   0.000   0.000   0.000   0.000   0.000   0.000   0.000   0.000   0.000   0.000   0.000   0.000
  0.000   0.000   0.000   0.000   0.000   0.000   0.000   0.000   0.000   0.000   0.000   0.000   0.000   0.000   0.000   0.000
  0.000   0.000   0.000   0.000   0.000   0.000   0.000   0.000   0.000   0.000   0.000   0.000   0.000   0.000   0.000   0.000
  0.000   0.000   0.000   0.000   0.000   0.000   0.000   0.000   0.000   0.000   0.000   0.000   0.000   0.000   0.000   0.000
  0.000   0.000   0.000   0.000   0.000   0.000   0.000   0.000   0.000   0.000   0.000   0.000   0.000   0.000   0.000   0.000
  0.000   0.000   0.000   0.000   0.000   0.000   0.000   0.000   0.000   0.000   0.000   0.000   0.000   0.000   0.000   0.000
 total augmentation occupancy for first ion, spin component:           2
  0.175   0.000   0.000   0.000   0.000   0.000   0.000   0.000   0.000   0.000   0.000   0.000   0.000   0.000   0.000   0.000
  0.000   0.175   0.000   0.000   0.000   0.000   0.000   0.000   0.000   0.000   0.000   0.000   0.000   0.000   0.000   0.000
  0.000   0.000   0.175   0.000   0.000   0.000   0.000   0.000   0.000   0.000   0.000   0.000   0.000   0.000   0.000   0.000
  0.000   0.000   0.000   0.175   0.000   0.000   0.000   0.000   0.000   0.000   0.000   0.000   0.000   0.000   0.000   0.000
  0.000   0.000   0.000   0.000   0.175   0.000   0.000   0.000   0.000   0.000   0.000   0.000   0.000   0.000   0.000   0.000
  0.000   0.000   0.000   0.000   0.000   0.000   0.000   0.000   0.000   0.000   0.000   0.000   0.000   0.000   0.000   0.000
  0.000   0.000   0.000   0.000   0.000   0.000   0.000   0.000   0.000   0.000   0.000   0.000   0.000   0.000   0.000   0.000
  0.000   0.000   0.000   0.000   0.000   0.000   0.000   0.000   0.000   0.000   0.000   0.000   0.000   0.000   0.000   0.000
  0.000   0.000   0.000   0.000   0.000   0.000   0.000   0.000   0.000   0.000   0.000   0.000   0.000   0.000   0.000   0.000
  0.000   0.000   0.000   0.000   0.000   0.000   0.000   0.000   0.000   0.000   0.000   0.000   0.000   0.000   0.000   0.000
  0.000   0.000   0.000   0.000   0.000   0.000   0.000   0.000   0.000   0.000   0.125   0.000   0.000   0.000   0.000   0.000
  0.000   0.000   0.000   0.000   0.000   0.000   0.000   0.000   0.000   0.000   0.000   0.000   0.000   0.000   0.000   0.000
  0.000   0.000   0.000   0.000   0.000   0.000   0.000   0.000   0.000   0.000   0.000   0.000   0.000   0.000   0.000   0.000
  0.000   0.000   0.000   0.000   0.000   0.000   0.000   0.000   0.000   0.000   0.000   0.000   0.000   0.000   0.000   0.000
  0.000   0.000   0.000   0.000   0.000   0.000   0.000   0.000   0.000   0.000   0.000   0.000   0.000   0.000   0.000   0.000
  0.000   0.000   0.000   0.000   0.000   0.000   0.000   0.000   0.000   0.000   0.000   0.000   0.000   0.000   0.000   0.000
  0.000   0.000   0.000   0.000   0.000   0.000   0.000   0.000   0.000   0.000   0.000   0.000   0.000   0.000   0.000   0.000
  0.000   0.000   0.000   0.000   0.000   0.000   0.000   0.000   0.000   0.000   0.000   0.000   0.000   0.000   0.000   0.000


------------------------ aborting loop because EDIFF is reached ----------------------------------------


 


 total charge     
 
# of ion       s       p       d       tot
------------------------------------------
    1        0.498   0.641   6.169   7.308
    2        0.495   0.645   6.169   7.308
    3        0.499   0.644   6.169   7.312
    4        0.494   0.646   6.159   7.299
    5        0.498   0.641   6.169   7.308
    6        0.495   0.645   6.169   7.308
    7        0.499   0.644   6.169   7.312
    8        0.494   0.646   6.159   7.299
    9        0.750   0.798   4.702   6.250
   10        0.760   0.788   4.690   6.238
   11        0.750   0.798   4.702   6.250
   12        0.760   0.788   4.690   6.238
   13        0.863   1.480   0.000   2.343
   14        0.861   1.488   0.000   2.350
   15        0.863   1.480   0.000   2.343
   16        0.861   1.488   0.000   2.350
--------------------------------------------------
tot         10.442  14.258  68.116  92.815
 


 magnetization (x)
 
# of ion       s       p       d       tot
------------------------------------------
    1        0.014  -0.009   2.885   2.890
    2        0.014  -0.006   2.886   2.894
    3        0.014  -0.007   2.891   2.898
    4        0.014  -0.007   2.895   2.903
    5        0.014  -0.009   2.885   2.890
    6        0.014  -0.006   2.886   2.894
    7        0.014  -0.007   2.891   2.898
    8        0.014  -0.007   2.895   2.903
    9       -0.043  -0.076  -0.247  -0.366
   10       -0.041  -0.076  -0.246  -0.362
   11       -0.043  -0.076  -0.247  -0.366
   12       -0.041  -0.076  -0.246  -0.362
   13        0.006  -0.037   0.000  -0.031
   14        0.006  -0.036   0.000  -0.030
   15        0.006  -0.037   0.000  -0.031
   16        0.006  -0.036   0.000  -0.030
--------------------------------------------------
tot         -0.031  -0.506  22.129  21.592
 
    CHARGE:  cpu time    0.3215: real time    1.2524
    FORLOC:  cpu time    0.0018: real time    0.0026
    FORHF :  cpu time13942.5399: real time13944.9580
    FORNL :  cpu time    2.8374: real time    3.5555
    FORCOR:  cpu time    0.2503: real time    0.2604
    FORHAR:  cpu time    0.0031: real time    0.0044
    OFIELD:  cpu time    0.0008: real time    0.0014

 VOLUME and BASIS-vectors are now :
 -----------------------------------------------------------------------------
  energy-cutoff  :      520.00
  volume of cell :      174.91
      direct lattice vectors                 reciprocal lattice vectors
     3.843738809  0.000000000  0.000000000     0.260163359  0.000000000  0.000000000
     0.000000000  5.896302421  0.000000000     0.000000000  0.169597814  0.000000000
     0.000000000  0.000000000  7.717455542     0.000000000  0.000000000  0.129576386

  length of vectors
     3.843738809  5.896302421  7.717455542     0.260163359  0.169597814  0.129576386


 FORCES acting on ions
    electron-ion (+dipol)            ewald-force                    non-local-force                 convergence-correction
 -----------------------------------------------------------------------------------------------
   0.540E+01 0.110E+02 0.199E+02   -.601E+01 -.102E+02 -.205E+02   0.440E+00 -.875E+00 0.506E+00   0.279E+00 -.147E+00 -.918E+00
   -.540E+01 0.110E+02 -.199E+02   0.601E+01 -.102E+02 0.205E+02   -.440E+00 -.875E+00 -.506E+00   -.279E+00 -.147E+00 0.918E+00
   -.540E+01 -.110E+02 0.199E+02   0.601E+01 0.102E+02 -.205E+02   -.440E+00 0.875E+00 0.506E+00   -.279E+00 0.147E+00 -.918E+00
   0.540E+01 -.110E+02 -.199E+02   -.601E+01 0.102E+02 0.205E+02   0.440E+00 0.875E+00 -.506E+00   0.279E+00 0.147E+00 0.918E+00
   -.540E+01 -.110E+02 -.199E+02   0.601E+01 0.102E+02 0.205E+02   -.440E+00 0.875E+00 -.506E+00   -.279E+00 0.147E+00 0.918E+00
   0.540E+01 -.110E+02 0.199E+02   -.601E+01 0.102E+02 -.205E+02   0.440E+00 0.875E+00 0.506E+00   0.279E+00 0.147E+00 -.918E+00
   0.540E+01 0.110E+02 -.199E+02   -.601E+01 -.102E+02 0.205E+02   0.440E+00 -.875E+00 -.506E+00   0.279E+00 -.147E+00 0.918E+00
   -.540E+01 0.110E+02 0.199E+02   0.601E+01 -.102E+02 -.205E+02   -.440E+00 -.875E+00 0.506E+00   -.279E+00 -.147E+00 -.918E+00
   -.120E+02 0.830E+01 0.186E-05   0.130E+02 -.959E+01 0.707E-14   -.614E+00 -.526E-01 0.000E+00   -.500E+00 0.364E+00 -.116E-05
   0.120E+02 0.830E+01 -.540E-05   -.130E+02 -.959E+01 -.347E-13   0.614E+00 -.526E-01 0.000E+00   0.500E+00 0.364E+00 0.367E-05
   0.120E+02 -.830E+01 -.178E-05   -.130E+02 0.959E+01 0.657E-14   0.614E+00 0.526E-01 0.000E+00   0.500E+00 -.364E+00 0.111E-05
   -.120E+02 -.830E+01 0.545E-05   0.130E+02 0.959E+01 -.368E-13   -.614E+00 0.526E-01 0.000E+00   -.500E+00 -.364E+00 -.370E-05
   -.229E+02 -.120E+02 -.840E-06   0.246E+02 0.133E+02 -.187E-13   0.857E-01 0.404E-01 0.000E+00   -.119E+01 -.385E+00 0.105E-05
   0.229E+02 -.120E+02 -.170E-05   -.246E+02 0.133E+02 -.190E-13   -.857E-01 0.404E-01 0.000E+00   0.119E+01 -.385E+00 0.777E-06
   0.229E+02 0.120E+02 0.880E-06   -.246E+02 -.133E+02 -.937E-14   -.857E-01 -.404E-01 0.000E+00   0.119E+01 0.385E+00 -.106E-05
   -.229E+02 0.120E+02 0.177E-05   0.246E+02 -.133E+02 -.525E-14   0.857E-01 -.404E-01 0.000E+00   -.119E+01 0.385E+00 -.803E-06
 -----------------------------------------------------------------------------------------------
   0.211E-06 -.510E-07 -.573E-07   0.107E-13 -.195E-13 -.711E-13   -.139E-16 0.222E-15 -.111E-15   -.159E-06 0.419E-07 0.896E-07
 
 
 POSITION                                       TOTAL-FORCE (eV/Angst)
 -----------------------------------------------------------------------------------
      0.53959      3.97208      0.49817         0.188675     -0.266111     -0.846484
      1.38228      1.02393      3.36055        -0.188675     -0.266111      0.846484
      3.30415      1.92422      4.35690        -0.188675      0.266111     -0.846484
      2.46146      4.87237      7.21928         0.188675      0.266111      0.846484
      3.30415      1.92422      7.21928        -0.188675      0.266111      0.846484
      2.46146      4.87237      4.35690         0.188675      0.266111     -0.846484
      0.53959      3.97208      3.36055         0.188675     -0.266111      0.846484
      1.38228      1.02393      0.49817        -0.188675     -0.266111     -0.846484
      2.46308      3.16303      1.92936        -0.168775     -0.969674     -0.000000
      3.30253      0.21488      1.92936         0.168775     -0.969674     -0.000000
      1.38066      2.73327      5.78809         0.168775      0.969674     -0.000000
      0.54121      5.68143      5.78809        -0.168775      0.969674      0.000000
      1.39788      5.11126      1.92936         0.702526      1.003421      0.000000
      0.52398      2.16311      1.92936        -0.702526      1.003421      0.000000
      2.44585      0.78504      5.78809        -0.702526     -1.003421      0.000000
      3.31975      3.73319      5.78809         0.702526     -1.003421      0.000000
 -----------------------------------------------------------------------------------
    total drift:                                0.000000     -0.000000      0.000000


--------------------------------------------------------------------------------------------------------



  FREE ENERGIE OF THE ION-ELECTRON SYSTEM (eV)
  ---------------------------------------------------
  free  energy   TOTEN  =      -187.36110932 eV

  energy  without entropy=     -187.35405853  energy(sigma->0) =     -187.35758392
 


--------------------------------------------------------------------------------------------------------


    POTLOK:  cpu time    0.2264: real time    0.4258


--------------------------------------------------------------------------------------------------------


     LOOP+:  cpu time**********: real time**********
    4ORBIT:  cpu time    0.0000: real time    0.0000
 


 total charge     
 
# of ion       s       p       d       tot
------------------------------------------
    1        0.498   0.641   6.169   7.308
    2        0.495   0.645   6.169   7.308
    3        0.499   0.644   6.169   7.312
    4        0.494   0.646   6.159   7.299
    5        0.498   0.641   6.169   7.308
    6        0.495   0.645   6.169   7.308
    7        0.499   0.644   6.169   7.312
    8        0.494   0.646   6.159   7.299
    9        0.750   0.798   4.702   6.250
   10        0.760   0.788   4.690   6.238
   11        0.750   0.798   4.702   6.250
   12        0.760   0.788   4.690   6.238
   13        0.863   1.480   0.000   2.343
   14        0.861   1.488   0.000   2.350
   15        0.863   1.480   0.000   2.343
   16        0.861   1.488   0.000   2.350
--------------------------------------------------
tot         10.442  14.258  68.116  92.815
 


 magnetization (x)
 
# of ion       s       p       d       tot
------------------------------------------
    1        0.014  -0.009   2.885   2.890
    2        0.014  -0.006   2.886   2.894
    3        0.014  -0.007   2.891   2.898
    4        0.014  -0.007   2.895   2.903
    5        0.014  -0.009   2.885   2.890
    6        0.014  -0.006   2.886   2.894
    7        0.014  -0.007   2.891   2.898
    8        0.014  -0.007   2.895   2.903
    9       -0.043  -0.076  -0.247  -0.366
   10       -0.041  -0.076  -0.246  -0.362
   11       -0.043  -0.076  -0.247  -0.366
   12       -0.041  -0.076  -0.246  -0.362
   13        0.006  -0.037   0.000  -0.031
   14        0.006  -0.036   0.000  -0.030
   15        0.006  -0.037   0.000  -0.031
   16        0.006  -0.036   0.000  -0.030
--------------------------------------------------
tot         -0.031  -0.506  22.129  21.592
 

 total amount of memory used by VASP MPI-rank0   155498. kBytes
=======================================================================

   base      :      30000. kBytes
   nonlr-proj:       8590. kBytes
   fftplans  :       2319. kBytes
   grid      :       1955. kBytes
   one-center:         62. kBytes
   HF        :        129. kBytes
   wavefun   :     112443. kBytes
 
  
  
 General timing and accounting informations for this job:
 ========================================================
  
                  Total CPU time used (sec):   257106.234
                            User time (sec):   257083.757
                          System time (sec):       22.485
                         Elapsed time (sec):   257222.464
  
                   Maximum memory used (kb):      467696.
                   Average memory used (kb):           0.
  
                          Minor page faults:     12759702
                          Major page faults:        19745
                 Voluntary context switches:        32187
