 vasp.5.4.4.18Apr17-6-g9f103f2a35 (build Jan 10 2024 09:48:00) complex          
  
 executed on             LinuxIFC date 2024.04.16  22:07:29
 running on   64 total cores
 distrk:  each k-point on   64 cores,    1 groups
 distr:  one band on NCORES_PER_BAND=   8 cores,    8 groups


--------------------------------------------------------------------------------------------------------


 INCAR:
 POTCAR:    PAW_PBE Cd 06Sep2000                  
 POTCAR:    PAW_PBE N 08Apr2002                   
 POTCAR:    PAW_PBE Cd 06Sep2000                  
   VRHFIN =Cd : s2 d10                                                          
   LEXCH  = PE                                                                  
   EATOM  =  1293.1815 eV,   95.0462 Ry                                         
                                                                                
   TITEL  = PAW_PBE Cd 06Sep2000                                                
   LULTRA =        F    use ultrasoft PP ?                                      
   IUNSCR =        1    unscreen: 0-lin 1-nonlin 2-no                           
   RPACOR =    2.000    partial core radius                                     
   POMASS =  112.411; ZVAL   =   12.000    mass and valenz                      
   RCORE  =    2.300    outmost cutoff radius                                   
   RWIGS  =    2.980; RWIGS  =    1.577    wigner-seitz radius (au A)           
   ENMAX  =  274.336; ENMIN  =  205.752 eV                                      
   RCLOC  =    2.054    cutoff for local pot                                    
   LCOR   =        T    correct aug charges                                     
   LPAW   =        T    paw PP                                                  
   EAUG   =  456.106                                                            
   DEXC   =    0.000                                                            
   RMAX   =    2.358    core radius for proj-oper                               
   RAUG   =    1.300    factor for augmentation sphere                          
   RDEP   =    2.450    radius for radial grids                                 
   RDEPT  =    1.955    core radius for aug-charge                              
                                                                                
   Atomic configuration                                                         
   12 entries                                                                   
     n  l   j            E        occ.                                          
     1  0  0.50    -26519.7817   2.0000                                         
     2  0  0.50     -3936.9612   2.0000                                         
     2  1  1.50     -3532.2230   6.0000                                         
     3  0  0.50      -733.7908   2.0000                                         
     3  1  1.50      -601.0792   6.0000                                         
     3  2  2.50      -393.5307  10.0000                                         
     4  0  0.50      -105.8977   2.0000                                         
     4  1  1.50       -66.9488   6.0000                                         
     4  2  2.50       -11.7331  10.0000                                         
     5  0  0.50        -5.6592   2.0000                                         
     5  1  0.50        -1.3606   0.0000                                         
     4  3  2.50        -1.3606   0.0000                                         
   Description                                                                  
     l       E           TYP  RCUT    TYP  RCUT                                 
     2    -11.7331479     23  2.300                                             
     2    -13.0937305     23  2.300                                             
     0     -5.6591502     23  2.300                                             
     0     -1.5561433     23  2.300                                             
     1     -2.7211652     23  2.300                                             
     1      8.3548275     23  2.300                                             
  local pseudopotential read in
  partial core-charges read in
  partial kinetic energy density read in
  atomic valenz-charges read in
  non local Contribution for L=           2  read in
    real space projection operators read in
  non local Contribution for L=           2  read in
    real space projection operators read in
  non local Contribution for L=           0  read in
    real space projection operators read in
  non local Contribution for L=           0  read in
    real space projection operators read in
  non local Contribution for L=           1  read in
    real space projection operators read in
  non local Contribution for L=           1  read in
    real space projection operators read in
    PAW grid and wavefunctions read in
 
   number of l-projection  operators is LMAX  =           6
   number of lm-projection operators is LMMAX =          18
 
 POTCAR:    PAW_PBE N 08Apr2002                   
   VRHFIN =N: s2p3                                                              
   LEXCH  = PE                                                                  
   EATOM  =   264.5486 eV,   19.4438 Ry                                         
                                                                                
   TITEL  = PAW_PBE N 08Apr2002                                                 
   LULTRA =        F    use ultrasoft PP ?                                      
   IUNSCR =        1    unscreen: 0-lin 1-nonlin 2-no                           
   RPACOR =    1.200    partial core radius                                     
   POMASS =   14.001; ZVAL   =    5.000    mass and valenz                      
   RCORE  =    1.500    outmost cutoff radius                                   
   RWIGS  =    1.400; RWIGS  =    0.741    wigner-seitz radius (au A)           
   ENMAX  =  400.000; ENMIN  =  300.000 eV                                      
   ICORE  =        2    local potential                                         
   LCOR   =        T    correct aug charges                                     
   LPAW   =        T    paw PP                                                  
   EAUG   =  627.112                                                            
   DEXC   =    0.000                                                            
   RMAX   =    1.529    core radius for proj-oper                               
   RAUG   =    1.300    factor for augmentation sphere                          
   RDEP   =    1.514    radius for radial grids                                 
   RDEPT  =    1.338    core radius for aug-charge                              
                                                                                
   Atomic configuration                                                         
    4 entries                                                                   
     n  l   j            E        occ.                                          
     1  0  0.50      -384.7179   2.0000                                         
     2  0  0.50       -18.5828   2.0000                                         
     2  1  0.50        -7.0898   3.0000                                         
     3  2  1.50        -6.8029   0.0000                                         
   Description                                                                  
     l       E           TYP  RCUT    TYP  RCUT                                 
     0    -18.5828119     23  1.200                                             
     0    -13.5018863     23  1.200                                             
     1     -7.0897853     23  1.500                                             
     1      9.5240782     23  1.500                                             
     2     -6.8029130      7  1.500                                             
  local pseudopotential read in
  partial core-charges read in
  partial kinetic energy density read in
  atomic valenz-charges read in
  non local Contribution for L=           0  read in
    real space projection operators read in
  non local Contribution for L=           0  read in
    real space projection operators read in
  non local Contribution for L=           1  read in
    real space projection operators read in
  non local Contribution for L=           1  read in
    real space projection operators read in
    PAW grid and wavefunctions read in
 
   number of l-projection  operators is LMAX  =           4
   number of lm-projection operators is LMMAX =           8
 
  PAW_PBE Cd 06Sep2000                  :
 energy of atom  1       EATOM=-1293.1815
 kinetic energy error for atom=    0.0062 (will be added to EATOM!!)
  PAW_PBE N 08Apr2002                   :
 energy of atom  2       EATOM= -264.5486
 kinetic energy error for atom=    0.0125 (will be added to EATOM!!)
 
 
 POSCAR: Cd1 N1                                  
  positions in direct lattice
  velocities in cartesian coordinates
 exchange correlation table for  LEXCH =        8
   RHO(1)=    0.500       N(1)  =     2000
   RHO(2)=  100.500       N(2)  =     4000
 


--------------------------------------------------------------------------------------------------------


 ion  position               nearest neighbor table
   1  0.000  0.000  0.000-   2 2.23   2 2.23   2 2.23   2 2.23
   2  0.250  0.250  0.250-   1 2.23   1 2.23   1 2.23   1 2.23
 
  LATTYP: Found a face centered cubic cell.
 ALAT       =     5.1439614725
  
  Lattice vectors:
  
 A1 = (   0.0000000000,   2.5719807363,   2.5719807363)
 A2 = (   2.5719807363,   0.0000000000,   2.5719807363)
 A3 = (   2.5719807363,   2.5719807363,   0.0000000000)


Analysis of symmetry for initial positions (statically):
=====================================================================
 Subroutine PRICEL returns:
 Original cell was already a primitive cell.
 

 Routine SETGRP: Setting up the symmetry group for a 
 face centered cubic supercell.


 Subroutine GETGRP returns: Found 24 space group operations
 (whereof 24 operations were pure point group operations)
 out of a pool of 48 trial point group operations.


The static configuration has the point symmetry T_d .


Analysis of symmetry for dynamics (positions and initial velocities):
=====================================================================
 Subroutine PRICEL returns:
 Original cell was already a primitive cell.
 

 Routine SETGRP: Setting up the symmetry group for a 
 face centered cubic supercell.


 Subroutine GETGRP returns: Found 24 space group operations
 (whereof 24 operations were pure point group operations)
 out of a pool of 48 trial point group operations.


The dynamic configuration has the point symmetry T_d .


Analysis of structural, dynamic, and magnetic symmetry:
=====================================================================
 Subroutine PRICEL returns:
 Original cell was already a primitive cell.
 

 Routine SETGRP: Setting up the symmetry group for a 
 face centered cubic supercell.


 Subroutine GETGRP returns: Found 24 space group operations
 (whereof 24 operations were pure point group operations)
 out of a pool of 48 trial point group operations.


The magnetic configuration has the point symmetry T_d .


 Subroutine INISYM returns: Found 24 space group operations
 (whereof 24 operations are pure point group operations),
 and found     1 'primitive' translations

 
 
 KPOINTS: 0.040   8   8   8   29  0.040  134    6 
  k-points in reciprocal lattice
Space group operators:
 irot       det(A)        alpha          n_x          n_y          n_z        tau_x        tau_y        tau_z
    1     1.000000     0.000000     1.000000     0.000000     0.000000     0.000000     0.000000     0.000000
    2     1.000000   120.000000    -0.577350    -0.577350    -0.577350     0.000000     0.000000     0.000000
    3     1.000000   120.000000     0.577350     0.577350     0.577350     0.000000     0.000000     0.000000
    4    -1.000000    90.000000     0.000000     0.000000    -1.000000     0.000000     0.000000     0.000000
    5    -1.000000   180.000000     0.000000     0.707107     0.707107     0.000000     0.000000     0.000000
    6    -1.000000    90.000000     0.000000     1.000000     0.000000     0.000000     0.000000     0.000000
    7     1.000000   180.000000     0.000000     0.000000     1.000000     0.000000     0.000000     0.000000
    8     1.000000   120.000000    -0.577350     0.577350     0.577350     0.000000     0.000000     0.000000
    9     1.000000   120.000000    -0.577350     0.577350    -0.577350     0.000000     0.000000     0.000000
   10    -1.000000    90.000000     0.000000     0.000000     1.000000     0.000000     0.000000     0.000000
   11    -1.000000    90.000000    -1.000000     0.000000     0.000000     0.000000     0.000000     0.000000
   12    -1.000000   180.000000     0.707107     0.000000     0.707107     0.000000     0.000000     0.000000
   13     1.000000   120.000000     0.577350    -0.577350     0.577350     0.000000     0.000000     0.000000
   14     1.000000   120.000000    -0.577350    -0.577350     0.577350     0.000000     0.000000     0.000000
   15     1.000000   180.000000     1.000000     0.000000     0.000000     0.000000     0.000000     0.000000
   16    -1.000000    90.000000     0.000000    -1.000000     0.000000     0.000000     0.000000     0.000000
   17    -1.000000   180.000000     0.707107     0.707107     0.000000     0.000000     0.000000     0.000000
   18    -1.000000    90.000000     1.000000     0.000000     0.000000     0.000000     0.000000     0.000000
   19     1.000000   120.000000     0.577350    -0.577350    -0.577350     0.000000     0.000000     0.000000
   20     1.000000   180.000000     0.000000     1.000000     0.000000     0.000000     0.000000     0.000000
   21     1.000000   120.000000     0.577350     0.577350    -0.577350     0.000000     0.000000     0.000000
   22    -1.000000   180.000000     0.000000    -0.707107     0.707107     0.000000     0.000000     0.000000
   23    -1.000000   180.000000     0.707107    -0.707107     0.000000     0.000000     0.000000     0.000000
   24    -1.000000   180.000000     0.707107     0.000000    -0.707107     0.000000     0.000000     0.000000

 ----------------------------------------------------------------------------- 
|                                                                             |
|           W    W    AA    RRRRR   N    N  II  N    N   GGGG   !!!           |
|           W    W   A  A   R    R  NN   N  II  NN   N  G    G  !!!           |
|           W    W  A    A  R    R  N N  N  II  N N  N  G       !!!           |
|           W WW W  AAAAAA  RRRRR   N  N N  II  N  N N  G  GGG   !            |
|           WW  WW  A    A  R   R   N   NN  II  N   NN  G    G                |
|           W    W  A    A  R    R  N    N  II  N    N   GGGG   !!!           |
|                                                                             |
|      Your generating k-point grid is not commensurate to the symmetry       |
|      of the lattice.  This can cause   slow convergence with respect        |
|      to k-points for HF type calculations                                   |
|      suggested SOLUTIONS:                                                   |
|       ) if not already the case, use automatic k-point generation           |
|       ) shift your grid to Gamma (G) (e.g. required for hex or fcc lattice) |
|                                                                             |
 ----------------------------------------------------------------------------- 

 
 Subroutine IBZKPT_HF returns following result:
 ==============================================
 
 Found    646 k-points in 1st BZ
 the following    646 k-points will be used (e.g. in the exchange kernel)
 Following reciprocal coordinates:   # in IRBZ
  0.000000  0.000000  0.000000    0.00195312   1 t-inv F
  0.125000  0.000000  0.000000    0.00195312   2 t-inv F
  0.250000  0.000000  0.000000    0.00195312   3 t-inv F
  0.375000  0.000000  0.000000    0.00195312   4 t-inv F
  0.500000  0.000000  0.000000    0.00195312   5 t-inv F
  0.125000  0.125000  0.000000    0.00195312   6 t-inv F
  0.250000  0.125000  0.000000    0.00195312   7 t-inv F
  0.375000  0.125000  0.000000    0.00195312   8 t-inv F
  0.500000  0.125000  0.000000    0.00195312   9 t-inv F
 -0.375000  0.125000  0.000000    0.00195312  10 t-inv F
 -0.250000  0.125000  0.000000    0.00195312  11 t-inv F
 -0.125000  0.125000  0.000000    0.00195312  12 t-inv F
  0.250000  0.250000  0.000000    0.00195312  13 t-inv F
  0.375000  0.250000  0.000000    0.00195312  14 t-inv F
  0.500000  0.250000  0.000000    0.00195312  15 t-inv F
 -0.375000  0.250000  0.000000    0.00195312  16 t-inv F
 -0.250000  0.250000  0.000000    0.00195312  17 t-inv F
  0.375000  0.375000  0.000000    0.00195312  18 t-inv F
  0.500000  0.375000  0.000000    0.00195312  19 t-inv F
 -0.375000  0.375000  0.000000    0.00195312  20 t-inv F
  0.500000  0.500000  0.000000    0.00195312  21 t-inv F
  0.375000  0.250000  0.125000    0.00195312  22 t-inv F
  0.500000  0.250000  0.125000    0.00195312  23 t-inv F
 -0.375000  0.250000  0.125000    0.00195312  24 t-inv F
  0.500000  0.375000  0.125000    0.00195312  25 t-inv F
 -0.375000  0.375000  0.125000    0.00195312  26 t-inv F
 -0.250000  0.375000  0.125000    0.00195312  27 t-inv F
 -0.375000  0.500000  0.125000    0.00195312  28 t-inv F
 -0.250000  0.500000  0.250000    0.00195312  29 t-inv F
  0.000000  0.000000  0.000000    0.00000000  30 t-inv F
  0.017241  0.000000  0.017241    0.00000000  31 t-inv F
  0.034483  0.000000  0.034483    0.00000000  32 t-inv F
  0.051724  0.000000  0.051724    0.00000000  33 t-inv F
  0.068966  0.000000  0.068966    0.00000000  34 t-inv F
  0.086207  0.000000  0.086207    0.00000000  35 t-inv F
  0.103448  0.000000  0.103448    0.00000000  36 t-inv F
  0.120690  0.000000  0.120690    0.00000000  37 t-inv F
  0.137931  0.000000  0.137931    0.00000000  38 t-inv F
  0.155172  0.000000  0.155172    0.00000000  39 t-inv F
  0.172414  0.000000  0.172414    0.00000000  40 t-inv F
  0.189655  0.000000  0.189655    0.00000000  41 t-inv F
  0.206897  0.000000  0.206897    0.00000000  42 t-inv F
  0.224138  0.000000  0.224138    0.00000000  43 t-inv F
  0.241379  0.000000  0.241379    0.00000000  44 t-inv F
  0.258621  0.000000  0.258621    0.00000000  45 t-inv F
  0.275862  0.000000  0.275862    0.00000000  46 t-inv F
  0.293103  0.000000  0.293103    0.00000000  47 t-inv F
  0.310345  0.000000  0.310345    0.00000000  48 t-inv F
  0.327586  0.000000  0.327586    0.00000000  49 t-inv F
  0.344828  0.000000  0.344828    0.00000000  50 t-inv F
  0.362069  0.000000  0.362069    0.00000000  51 t-inv F
  0.379310  0.000000  0.379310    0.00000000  52 t-inv F
  0.396552  0.000000  0.396552    0.00000000  53 t-inv F
  0.413793  0.000000  0.413793    0.00000000  54 t-inv F
  0.431034  0.000000  0.431034    0.00000000  55 t-inv F
  0.448276  0.000000  0.448276    0.00000000  56 t-inv F
  0.465517  0.000000  0.465517    0.00000000  57 t-inv F
  0.482759  0.000000  0.482759    0.00000000  58 t-inv F
  0.500000  0.000000  0.500000    0.00000000  59 t-inv F
  0.500000  0.000000  0.500000    0.00000000  60 t-inv F
  0.513889  0.027778  0.513889    0.00000000  61 t-inv F
  0.527778  0.055556  0.527778    0.00000000  62 t-inv F
  0.541667  0.083333  0.541667    0.00000000  63 t-inv F
  0.555556  0.111111  0.555556    0.00000000  64 t-inv F
  0.569444  0.138889  0.569444    0.00000000  65 t-inv F
  0.583333  0.166667  0.583333    0.00000000  66 t-inv F
  0.597222  0.194444  0.597222    0.00000000  67 t-inv F
  0.611111  0.222222  0.611111    0.00000000  68 t-inv F
  0.625000  0.250000  0.625000    0.00000000  69 t-inv F
  0.375000  0.375000  0.750000    0.00000000  70 t-inv F
  0.362903  0.362903  0.725806    0.00000000  71 t-inv F
  0.350806  0.350806  0.701613    0.00000000  72 t-inv F
  0.338710  0.338710  0.677419    0.00000000  73 t-inv F
  0.326613  0.326613  0.653226    0.00000000  74 t-inv F
  0.314516  0.314516  0.629032    0.00000000  75 t-inv F
  0.302419  0.302419  0.604839    0.00000000  76 t-inv F
  0.290323  0.290323  0.580645    0.00000000  77 t-inv F
  0.278226  0.278226  0.556452    0.00000000  78 t-inv F
  0.266129  0.266129  0.532258    0.00000000  79 t-inv F
  0.254032  0.254032  0.508065    0.00000000  80 t-inv F
  0.241935  0.241935  0.483871    0.00000000  81 t-inv F
  0.229839  0.229839  0.459677    0.00000000  82 t-inv F
  0.217742  0.217742  0.435484    0.00000000  83 t-inv F
  0.205645  0.205645  0.411290    0.00000000  84 t-inv F
  0.193548  0.193548  0.387097    0.00000000  85 t-inv F
  0.181452  0.181452  0.362903    0.00000000  86 t-inv F
  0.169355  0.169355  0.338710    0.00000000  87 t-inv F
  0.157258  0.157258  0.314516    0.00000000  88 t-inv F
  0.145161  0.145161  0.290323    0.00000000  89 t-inv F
  0.133065  0.133065  0.266129    0.00000000  90 t-inv F
  0.120968  0.120968  0.241935    0.00000000  91 t-inv F
  0.108871  0.108871  0.217742    0.00000000  92 t-inv F
  0.096774  0.096774  0.193548    0.00000000  93 t-inv F
  0.084677  0.084677  0.169355    0.00000000  94 t-inv F
  0.072581  0.072581  0.145161    0.00000000  95 t-inv F
  0.060484  0.060484  0.120968    0.00000000  96 t-inv F
  0.048387  0.048387  0.096774    0.00000000  97 t-inv F
  0.036290  0.036290  0.072581    0.00000000  98 t-inv F
  0.024194  0.024194  0.048387    0.00000000  99 t-inv F
  0.012097  0.012097  0.024194    0.00000000 100 t-inv F
  0.000000  0.000000  0.000000    0.00000000 101 t-inv F
  0.000000  0.000000  0.000000    0.00000000 102 t-inv F
  0.020000  0.020000  0.020000    0.00000000 103 t-inv F
  0.040000  0.040000  0.040000    0.00000000 104 t-inv F
  0.060000  0.060000  0.060000    0.00000000 105 t-inv F
  0.080000  0.080000  0.080000    0.00000000 106 t-inv F
  0.100000  0.100000  0.100000    0.00000000 107 t-inv F
  0.120000  0.120000  0.120000    0.00000000 108 t-inv F
  0.140000  0.140000  0.140000    0.00000000 109 t-inv F
  0.160000  0.160000  0.160000    0.00000000 110 t-inv F
  0.180000  0.180000  0.180000    0.00000000 111 t-inv F
  0.200000  0.200000  0.200000    0.00000000 112 t-inv F
  0.220000  0.220000  0.220000    0.00000000 113 t-inv F
  0.240000  0.240000  0.240000    0.00000000 114 t-inv F
  0.260000  0.260000  0.260000    0.00000000 115 t-inv F
  0.280000  0.280000  0.280000    0.00000000 116 t-inv F
  0.300000  0.300000  0.300000    0.00000000 117 t-inv F
  0.320000  0.320000  0.320000    0.00000000 118 t-inv F
  0.340000  0.340000  0.340000    0.00000000 119 t-inv F
  0.360000  0.360000  0.360000    0.00000000 120 t-inv F
  0.380000  0.380000  0.380000    0.00000000 121 t-inv F
  0.400000  0.400000  0.400000    0.00000000 122 t-inv F
  0.420000  0.420000  0.420000    0.00000000 123 t-inv F
  0.440000  0.440000  0.440000    0.00000000 124 t-inv F
  0.460000  0.460000  0.460000    0.00000000 125 t-inv F
  0.480000  0.480000  0.480000    0.00000000 126 t-inv F
  0.500000  0.500000  0.500000    0.00000000 127 t-inv F
  0.500000  0.500000  0.500000    0.00000000 128 t-inv F
  0.500000  0.487500  0.512500    0.00000000 129 t-inv F
  0.500000  0.475000  0.525000    0.00000000 130 t-inv F
  0.500000  0.462500  0.537500    0.00000000 131 t-inv F
  0.500000  0.450000  0.550000    0.00000000 132 t-inv F
  0.500000  0.437500  0.562500    0.00000000 133 t-inv F
  0.500000  0.425000  0.575000    0.00000000 134 t-inv F
  0.500000  0.412500  0.587500    0.00000000 135 t-inv F
  0.500000  0.400000  0.600000    0.00000000 136 t-inv F
  0.500000  0.387500  0.612500    0.00000000 137 t-inv F
  0.500000  0.375000  0.625000    0.00000000 138 t-inv F
  0.500000  0.362500  0.637500    0.00000000 139 t-inv F
  0.500000  0.350000  0.650000    0.00000000 140 t-inv F
  0.500000  0.337500  0.662500    0.00000000 141 t-inv F
  0.500000  0.325000  0.675000    0.00000000 142 t-inv F
  0.500000  0.312500  0.687500    0.00000000 143 t-inv F
  0.500000  0.300000  0.700000    0.00000000 144 t-inv F
  0.500000  0.287500  0.712500    0.00000000 145 t-inv F
  0.500000  0.275000  0.725000    0.00000000 146 t-inv F
  0.500000  0.262500  0.737500    0.00000000 147 t-inv F
  0.500000  0.250000  0.750000    0.00000000 148 t-inv F
  0.500000  0.250000  0.750000    0.00000000 149 t-inv F
  0.500000  0.232143  0.732143    0.00000000 150 t-inv F
  0.500000  0.214286  0.714286    0.00000000 151 t-inv F
  0.500000  0.196429  0.696429    0.00000000 152 t-inv F
  0.500000  0.178571  0.678571    0.00000000 153 t-inv F
  0.500000  0.160714  0.660714    0.00000000 154 t-inv F
  0.500000  0.142857  0.642857    0.00000000 155 t-inv F
  0.500000  0.125000  0.625000    0.00000000 156 t-inv F
  0.500000  0.107143  0.607143    0.00000000 157 t-inv F
  0.500000  0.089286  0.589286    0.00000000 158 t-inv F
  0.500000  0.071429  0.571429    0.00000000 159 t-inv F
  0.500000  0.053571  0.553571    0.00000000 160 t-inv F
  0.500000  0.035714  0.535714    0.00000000 161 t-inv F
  0.500000  0.017857  0.517857    0.00000000 162 t-inv F
  0.500000  0.000000  0.500000    0.00000000 163 t-inv F
  0.000000  0.125000  0.000000    0.00195312   2 t-inv F
  0.000000  0.000000  0.125000    0.00195312   2 t-inv F
 -0.125000 -0.125000 -0.125000    0.00195312   2 t-inv F
  0.000000  0.250000  0.000000    0.00195312   3 t-inv F
  0.000000  0.000000  0.250000    0.00195312   3 t-inv F
 -0.250000 -0.250000 -0.250000    0.00195312   3 t-inv F
  0.000000  0.375000  0.000000    0.00195312   4 t-inv F
  0.000000  0.000000  0.375000    0.00195312   4 t-inv F
 -0.375000 -0.375000 -0.375000    0.00195312   4 t-inv F
  0.000000  0.500000  0.000000    0.00195312   5 t-inv F
  0.000000  0.000000  0.500000    0.00195312   5 t-inv F
 -0.500000 -0.500000 -0.500000    0.00195312   5 t-inv F
  0.000000  0.125000  0.125000    0.00195312   6 t-inv F
  0.125000  0.000000  0.125000    0.00195312   6 t-inv F
 -0.125000 -0.125000  0.000000    0.00195312   6 t-inv F
 -0.125000  0.000000 -0.125000    0.00195312   6 t-inv F
  0.000000 -0.125000 -0.125000    0.00195312   6 t-inv F
  0.000000  0.250000  0.125000    0.00195312   7 t-inv F
  0.125000  0.000000  0.250000    0.00195312   7 t-inv F
 -0.125000 -0.125000  0.125000    0.00195312   7 t-inv F
 -0.250000 -0.125000 -0.250000    0.00195312   7 t-inv F
  0.125000  0.250000  0.000000    0.00195312   7 t-inv F
  0.125000 -0.125000 -0.125000    0.00195312   7 t-inv F
 -0.250000 -0.250000 -0.125000    0.00195312   7 t-inv F
  0.000000  0.125000  0.250000    0.00195312   7 t-inv F
 -0.125000  0.125000 -0.125000    0.00195312   7 t-inv F
 -0.125000 -0.250000 -0.250000    0.00195312   7 t-inv F
  0.250000  0.000000  0.125000    0.00195312   7 t-inv F
  0.000000  0.375000  0.125000    0.00195312   8 t-inv F
  0.125000  0.000000  0.375000    0.00195312   8 t-inv F
 -0.125000 -0.125000  0.250000    0.00195312   8 t-inv F
 -0.375000 -0.250000 -0.375000    0.00195312   8 t-inv F
  0.125000  0.375000  0.000000    0.00195312   8 t-inv F
  0.250000 -0.125000 -0.125000    0.00195312   8 t-inv F
 -0.375000 -0.375000 -0.250000    0.00195312   8 t-inv F
  0.000000  0.125000  0.375000    0.00195312   8 t-inv F
 -0.125000  0.250000 -0.125000    0.00195312   8 t-inv F
 -0.250000 -0.375000 -0.375000    0.00195312   8 t-inv F
  0.375000  0.000000  0.125000    0.00195312   8 t-inv F
  0.000000  0.500000  0.125000    0.00195312   9 t-inv F
  0.125000  0.000000  0.500000    0.00195312   9 t-inv F
 -0.125000 -0.125000  0.375000    0.00195312   9 t-inv F
 -0.500000 -0.375000 -0.500000    0.00195312   9 t-inv F
  0.125000  0.500000  0.000000    0.00195312   9 t-inv F
  0.375000 -0.125000 -0.125000    0.00195312   9 t-inv F
 -0.500000 -0.500000 -0.375000    0.00195312   9 t-inv F
  0.000000  0.125000  0.500000    0.00195312   9 t-inv F
 -0.125000  0.375000 -0.125000    0.00195312   9 t-inv F
 -0.375000 -0.500000 -0.500000    0.00195312   9 t-inv F
  0.500000  0.000000  0.125000    0.00195312   9 t-inv F
  0.000000 -0.375000  0.125000    0.00195312  10 t-inv F
  0.125000  0.000000 -0.375000    0.00195312  10 t-inv F
 -0.125000 -0.125000 -0.500000    0.00195312  10 t-inv F
  0.375000  0.500000  0.375000    0.00195312  10 t-inv F
  0.125000 -0.375000  0.000000    0.00195312  10 t-inv F
 -0.500000 -0.125000 -0.125000    0.00195312  10 t-inv F
  0.375000  0.375000  0.500000    0.00195312  10 t-inv F
  0.000000  0.125000 -0.375000    0.00195312  10 t-inv F
 -0.125000 -0.500000 -0.125000    0.00195312  10 t-inv F
  0.500000  0.375000  0.375000    0.00195312  10 t-inv F
 -0.375000  0.000000  0.125000    0.00195312  10 t-inv F
  0.000000 -0.250000  0.125000    0.00195312  11 t-inv F
  0.125000  0.000000 -0.250000    0.00195312  11 t-inv F
 -0.125000 -0.125000 -0.375000    0.00195312  11 t-inv F
  0.250000  0.375000  0.250000    0.00195312  11 t-inv F
  0.125000 -0.250000  0.000000    0.00195312  11 t-inv F
 -0.375000 -0.125000 -0.125000    0.00195312  11 t-inv F
  0.250000  0.250000  0.375000    0.00195312  11 t-inv F
  0.000000  0.125000 -0.250000    0.00195312  11 t-inv F
 -0.125000 -0.375000 -0.125000    0.00195312  11 t-inv F
  0.375000  0.250000  0.250000    0.00195312  11 t-inv F
 -0.250000  0.000000  0.125000    0.00195312  11 t-inv F
  0.000000 -0.125000  0.125000    0.00195312  12 t-inv F
  0.125000  0.000000 -0.125000    0.00195312  12 t-inv F
 -0.125000 -0.125000 -0.250000    0.00195312  12 t-inv F
  0.125000  0.250000  0.125000    0.00195312  12 t-inv F
  0.125000 -0.125000  0.000000    0.00195312  12 t-inv F
 -0.250000 -0.125000 -0.125000    0.00195312  12 t-inv F
  0.125000  0.125000  0.250000    0.00195312  12 t-inv F
  0.000000  0.125000 -0.125000    0.00195312  12 t-inv F
 -0.125000 -0.250000 -0.125000    0.00195312  12 t-inv F
  0.250000  0.125000  0.125000    0.00195312  12 t-inv F
 -0.125000  0.000000  0.125000    0.00195312  12 t-inv F
  0.000000  0.250000  0.250000    0.00195312  13 t-inv F
  0.250000  0.000000  0.250000    0.00195312  13 t-inv F
 -0.250000 -0.250000  0.000000    0.00195312  13 t-inv F
 -0.250000  0.000000 -0.250000    0.00195312  13 t-inv F
  0.000000 -0.250000 -0.250000    0.00195312  13 t-inv F
  0.000000  0.375000  0.250000    0.00195312  14 t-inv F
  0.250000  0.000000  0.375000    0.00195312  14 t-inv F
 -0.250000 -0.250000  0.125000    0.00195312  14 t-inv F
 -0.375000 -0.125000 -0.375000    0.00195312  14 t-inv F
  0.250000  0.375000  0.000000    0.00195312  14 t-inv F
  0.125000 -0.250000 -0.250000    0.00195312  14 t-inv F
 -0.375000 -0.375000 -0.125000    0.00195312  14 t-inv F
  0.000000  0.250000  0.375000    0.00195312  14 t-inv F
 -0.250000  0.125000 -0.250000    0.00195312  14 t-inv F
 -0.125000 -0.375000 -0.375000    0.00195312  14 t-inv F
  0.375000  0.000000  0.250000    0.00195312  14 t-inv F
  0.000000  0.500000  0.250000    0.00195312  15 t-inv F
  0.250000  0.000000  0.500000    0.00195312  15 t-inv F
 -0.250000 -0.250000  0.250000    0.00195312  15 t-inv F
 -0.500000 -0.250000 -0.500000    0.00195312  15 t-inv F
  0.250000  0.500000  0.000000    0.00195312  15 t-inv F
  0.250000 -0.250000 -0.250000    0.00195312  15 t-inv F
 -0.500000 -0.500000 -0.250000    0.00195312  15 t-inv F
  0.000000  0.250000  0.500000    0.00195312  15 t-inv F
 -0.250000  0.250000 -0.250000    0.00195312  15 t-inv F
 -0.250000 -0.500000 -0.500000    0.00195312  15 t-inv F
  0.500000  0.000000  0.250000    0.00195312  15 t-inv F
  0.000000 -0.375000  0.250000    0.00195312  16 t-inv F
  0.250000  0.000000 -0.375000    0.00195312  16 t-inv F
 -0.250000 -0.250000 -0.625000    0.00195312  16 t-inv F
  0.375000  0.625000  0.375000    0.00195312  16 t-inv F
  0.250000 -0.375000  0.000000    0.00195312  16 t-inv F
 -0.625000 -0.250000 -0.250000    0.00195312  16 t-inv F
  0.375000  0.375000  0.625000    0.00195312  16 t-inv F
  0.000000  0.250000 -0.375000    0.00195312  16 t-inv F
 -0.250000 -0.625000 -0.250000    0.00195312  16 t-inv F
  0.625000  0.375000  0.375000    0.00195312  16 t-inv F
 -0.375000  0.000000  0.250000    0.00195312  16 t-inv F
  0.000000 -0.250000  0.250000    0.00195312  17 t-inv F
  0.250000  0.000000 -0.250000    0.00195312  17 t-inv F
 -0.250000 -0.250000 -0.500000    0.00195312  17 t-inv F
  0.250000  0.500000  0.250000    0.00195312  17 t-inv F
  0.250000 -0.250000  0.000000    0.00195312  17 t-inv F
 -0.500000 -0.250000 -0.250000    0.00195312  17 t-inv F
  0.250000  0.250000  0.500000    0.00195312  17 t-inv F
  0.000000  0.250000 -0.250000    0.00195312  17 t-inv F
 -0.250000 -0.500000 -0.250000    0.00195312  17 t-inv F
  0.500000  0.250000  0.250000    0.00195312  17 t-inv F
 -0.250000  0.000000  0.250000    0.00195312  17 t-inv F
  0.000000  0.375000  0.375000    0.00195312  18 t-inv F
  0.375000  0.000000  0.375000    0.00195312  18 t-inv F
 -0.375000 -0.375000  0.000000    0.00195312  18 t-inv F
 -0.375000  0.000000 -0.375000    0.00195312  18 t-inv F
  0.000000 -0.375000 -0.375000    0.00195312  18 t-inv F
  0.000000  0.500000  0.375000    0.00195312  19 t-inv F
  0.375000  0.000000  0.500000    0.00195312  19 t-inv F
 -0.375000 -0.375000  0.125000    0.00195312  19 t-inv F
 -0.500000 -0.125000 -0.500000    0.00195312  19 t-inv F
  0.375000  0.500000  0.000000    0.00195312  19 t-inv F
  0.125000 -0.375000 -0.375000    0.00195312  19 t-inv F
 -0.500000 -0.500000 -0.125000    0.00195312  19 t-inv F
  0.000000  0.375000  0.500000    0.00195312  19 t-inv F
 -0.375000  0.125000 -0.375000    0.00195312  19 t-inv F
 -0.125000 -0.500000 -0.500000    0.00195312  19 t-inv F
  0.500000  0.000000  0.375000    0.00195312  19 t-inv F
  0.000000 -0.375000  0.375000    0.00195312  20 t-inv F
  0.375000  0.000000 -0.375000    0.00195312  20 t-inv F
 -0.375000 -0.375000 -0.750000    0.00195312  20 t-inv F
  0.375000  0.750000  0.375000    0.00195312  20 t-inv F
  0.375000 -0.375000  0.000000    0.00195312  20 t-inv F
 -0.750000 -0.375000 -0.375000    0.00195312  20 t-inv F
  0.375000  0.375000  0.750000    0.00195312  20 t-inv F
  0.000000  0.375000 -0.375000    0.00195312  20 t-inv F
 -0.375000 -0.750000 -0.375000    0.00195312  20 t-inv F
  0.750000  0.375000  0.375000    0.00195312  20 t-inv F
 -0.375000  0.000000  0.375000    0.00195312  20 t-inv F
  0.000000  0.500000  0.500000    0.00195312  21 t-inv F
  0.500000  0.000000  0.500000    0.00195312  21 t-inv F
  0.125000  0.375000  0.250000    0.00195312  22 t-inv F
  0.250000  0.125000  0.375000    0.00195312  22 t-inv F
 -0.250000 -0.125000  0.125000    0.00195312  22 t-inv F
 -0.375000 -0.125000 -0.250000    0.00195312  22 t-inv F
 -0.125000  0.250000  0.125000    0.00195312  22 t-inv F
  0.125000  0.250000 -0.125000    0.00195312  22 t-inv F
  0.125000 -0.125000 -0.250000    0.00195312  22 t-inv F
 -0.250000 -0.125000 -0.375000    0.00195312  22 t-inv F
 -0.250000 -0.375000 -0.125000    0.00195312  22 t-inv F
  0.125000 -0.125000  0.250000    0.00195312  22 t-inv F
  0.125000 -0.250000 -0.125000    0.00195312  22 t-inv F
 -0.125000  0.125000  0.250000    0.00195312  22 t-inv F
 -0.250000  0.125000 -0.125000    0.00195312  22 t-inv F
 -0.375000 -0.250000 -0.125000    0.00195312  22 t-inv F
 -0.125000 -0.250000 -0.375000    0.00195312  22 t-inv F
  0.250000  0.125000 -0.125000    0.00195312  22 t-inv F
 -0.125000  0.125000 -0.250000    0.00195312  22 t-inv F
  0.250000 -0.125000  0.125000    0.00195312  22 t-inv F
 -0.125000 -0.250000  0.125000    0.00195312  22 t-inv F
 -0.125000 -0.375000 -0.250000    0.00195312  22 t-inv F
  0.375000  0.125000  0.250000    0.00195312  22 t-inv F
  0.250000  0.375000  0.125000    0.00195312  22 t-inv F
  0.125000  0.250000  0.375000    0.00195312  22 t-inv F
  0.125000  0.500000  0.250000    0.00195312  23 t-inv F
  0.250000  0.125000  0.500000    0.00195312  23 t-inv F
 -0.250000 -0.125000  0.250000    0.00195312  23 t-inv F
 -0.500000 -0.250000 -0.375000    0.00195312  23 t-inv F
 -0.125000  0.375000  0.125000    0.00195312  23 t-inv F
  0.125000  0.375000 -0.125000    0.00195312  23 t-inv F
  0.250000 -0.125000 -0.250000    0.00195312  23 t-inv F
 -0.375000 -0.250000 -0.500000    0.00195312  23 t-inv F
 -0.375000 -0.500000 -0.250000    0.00195312  23 t-inv F
  0.125000 -0.125000  0.375000    0.00195312  23 t-inv F
  0.250000 -0.250000 -0.125000    0.00195312  23 t-inv F
 -0.125000  0.125000  0.375000    0.00195312  23 t-inv F
 -0.250000  0.250000 -0.125000    0.00195312  23 t-inv F
 -0.500000 -0.375000 -0.250000    0.00195312  23 t-inv F
 -0.250000 -0.375000 -0.500000    0.00195312  23 t-inv F
  0.375000  0.125000 -0.125000    0.00195312  23 t-inv F
 -0.125000  0.250000 -0.250000    0.00195312  23 t-inv F
  0.375000 -0.125000  0.125000    0.00195312  23 t-inv F
 -0.125000 -0.250000  0.250000    0.00195312  23 t-inv F
 -0.250000 -0.500000 -0.375000    0.00195312  23 t-inv F
  0.500000  0.125000  0.250000    0.00195312  23 t-inv F
  0.250000  0.500000  0.125000    0.00195312  23 t-inv F
  0.125000  0.250000  0.500000    0.00195312  23 t-inv F
  0.125000 -0.375000  0.250000    0.00195312  24 t-inv F
  0.250000  0.125000 -0.375000    0.00195312  24 t-inv F
 -0.250000 -0.125000 -0.625000    0.00195312  24 t-inv F
  0.375000  0.625000  0.500000    0.00195312  24 t-inv F
 -0.125000 -0.500000  0.125000    0.00195312  24 t-inv F
  0.125000 -0.500000 -0.125000    0.00195312  24 t-inv F
 -0.625000 -0.125000 -0.250000    0.00195312  24 t-inv F
  0.500000  0.625000  0.375000    0.00195312  24 t-inv F
  0.500000  0.375000  0.625000    0.00195312  24 t-inv F
  0.125000 -0.125000 -0.500000    0.00195312  24 t-inv F
 -0.625000 -0.250000 -0.125000    0.00195312  24 t-inv F
 -0.125000  0.125000 -0.500000    0.00195312  24 t-inv F
 -0.250000 -0.625000 -0.125000    0.00195312  24 t-inv F
  0.375000  0.500000  0.625000    0.00195312  24 t-inv F
  0.625000  0.500000  0.375000    0.00195312  24 t-inv F
 -0.500000  0.125000 -0.125000    0.00195312  24 t-inv F
 -0.125000 -0.625000 -0.250000    0.00195312  24 t-inv F
 -0.500000 -0.125000  0.125000    0.00195312  24 t-inv F
 -0.125000 -0.250000 -0.625000    0.00195312  24 t-inv F
  0.625000  0.375000  0.500000    0.00195312  24 t-inv F
 -0.375000  0.125000  0.250000    0.00195312  24 t-inv F
  0.250000 -0.375000  0.125000    0.00195312  24 t-inv F
  0.125000  0.250000 -0.375000    0.00195312  24 t-inv F
  0.125000  0.500000  0.375000    0.00195312  25 t-inv F
  0.375000  0.125000  0.500000    0.00195312  25 t-inv F
 -0.375000 -0.250000  0.125000    0.00195312  25 t-inv F
 -0.500000 -0.125000 -0.375000    0.00195312  25 t-inv F
 -0.125000  0.375000  0.250000    0.00195312  25 t-inv F
  0.250000  0.375000 -0.125000    0.00195312  25 t-inv F
  0.125000 -0.250000 -0.375000    0.00195312  25 t-inv F
 -0.375000 -0.125000 -0.500000    0.00195312  25 t-inv F
 -0.375000 -0.500000 -0.125000    0.00195312  25 t-inv F
  0.250000 -0.125000  0.375000    0.00195312  25 t-inv F
  0.125000 -0.375000 -0.250000    0.00195312  25 t-inv F
 -0.125000  0.250000  0.375000    0.00195312  25 t-inv F
 -0.375000  0.125000 -0.250000    0.00195312  25 t-inv F
 -0.500000 -0.375000 -0.125000    0.00195312  25 t-inv F
 -0.125000 -0.375000 -0.500000    0.00195312  25 t-inv F
  0.375000  0.250000 -0.125000    0.00195312  25 t-inv F
 -0.250000  0.125000 -0.375000    0.00195312  25 t-inv F
  0.375000 -0.125000  0.250000    0.00195312  25 t-inv F
 -0.250000 -0.375000  0.125000    0.00195312  25 t-inv F
 -0.125000 -0.500000 -0.375000    0.00195312  25 t-inv F
  0.500000  0.125000  0.375000    0.00195312  25 t-inv F
  0.375000  0.500000  0.125000    0.00195312  25 t-inv F
  0.125000  0.375000  0.500000    0.00195312  25 t-inv F
  0.125000 -0.375000  0.375000    0.00195312  26 t-inv F
  0.375000  0.125000 -0.375000    0.00195312  26 t-inv F
 -0.375000 -0.250000 -0.750000    0.00195312  26 t-inv F
  0.375000  0.750000  0.500000    0.00195312  26 t-inv F
 -0.125000 -0.500000  0.250000    0.00195312  26 t-inv F
  0.250000 -0.500000 -0.125000    0.00195312  26 t-inv F
 -0.750000 -0.250000 -0.375000    0.00195312  26 t-inv F
  0.500000  0.750000  0.375000    0.00195312  26 t-inv F
  0.500000  0.375000  0.750000    0.00195312  26 t-inv F
  0.250000 -0.125000 -0.500000    0.00195312  26 t-inv F
 -0.750000 -0.375000 -0.250000    0.00195312  26 t-inv F
 -0.125000  0.250000 -0.500000    0.00195312  26 t-inv F
 -0.375000 -0.750000 -0.250000    0.00195312  26 t-inv F
  0.375000  0.500000  0.750000    0.00195312  26 t-inv F
  0.750000  0.500000  0.375000    0.00195312  26 t-inv F
 -0.500000  0.250000 -0.125000    0.00195312  26 t-inv F
 -0.250000 -0.750000 -0.375000    0.00195312  26 t-inv F
 -0.500000 -0.125000  0.250000    0.00195312  26 t-inv F
 -0.250000 -0.375000 -0.750000    0.00195312  26 t-inv F
  0.750000  0.375000  0.500000    0.00195312  26 t-inv F
 -0.375000  0.125000  0.375000    0.00195312  26 t-inv F
  0.375000 -0.375000  0.125000    0.00195312  26 t-inv F
  0.125000  0.375000 -0.375000    0.00195312  26 t-inv F
  0.125000 -0.250000  0.375000    0.00195312  27 t-inv F
  0.375000  0.125000 -0.250000    0.00195312  27 t-inv F
 -0.375000 -0.250000 -0.625000    0.00195312  27 t-inv F
  0.250000  0.625000  0.375000    0.00195312  27 t-inv F
 -0.125000 -0.375000  0.250000    0.00195312  27 t-inv F
  0.250000 -0.375000 -0.125000    0.00195312  27 t-inv F
 -0.625000 -0.250000 -0.375000    0.00195312  27 t-inv F
  0.375000  0.625000  0.250000    0.00195312  27 t-inv F
  0.375000  0.250000  0.625000    0.00195312  27 t-inv F
  0.250000 -0.125000 -0.375000    0.00195312  27 t-inv F
 -0.625000 -0.375000 -0.250000    0.00195312  27 t-inv F
 -0.125000  0.250000 -0.375000    0.00195312  27 t-inv F
 -0.375000 -0.625000 -0.250000    0.00195312  27 t-inv F
  0.250000  0.375000  0.625000    0.00195312  27 t-inv F
  0.625000  0.375000  0.250000    0.00195312  27 t-inv F
 -0.375000  0.250000 -0.125000    0.00195312  27 t-inv F
 -0.250000 -0.625000 -0.375000    0.00195312  27 t-inv F
 -0.375000 -0.125000  0.250000    0.00195312  27 t-inv F
 -0.250000 -0.375000 -0.625000    0.00195312  27 t-inv F
  0.625000  0.250000  0.375000    0.00195312  27 t-inv F
 -0.250000  0.125000  0.375000    0.00195312  27 t-inv F
  0.375000 -0.250000  0.125000    0.00195312  27 t-inv F
  0.125000  0.375000 -0.250000    0.00195312  27 t-inv F
  0.125000 -0.375000  0.500000    0.00195312  28 t-inv F
  0.500000  0.125000 -0.375000    0.00195312  28 t-inv F
 -0.500000 -0.375000 -0.875000    0.00195312  28 t-inv F
  0.375000  0.875000  0.500000    0.00195312  28 t-inv F
 -0.125000 -0.500000  0.375000    0.00195312  28 t-inv F
  0.375000 -0.500000 -0.125000    0.00195312  28 t-inv F
  0.500000  0.875000  0.375000    0.00195312  28 t-inv F
  0.500000  0.375000  0.875000    0.00195312  28 t-inv F
 -0.875000 -0.500000 -0.375000    0.00195312  28 t-inv F
 -0.125000  0.375000 -0.500000    0.00195312  28 t-inv F
 -0.375000 -0.875000 -0.500000    0.00195312  28 t-inv F
  0.250000 -0.250000  0.500000    0.00195312  29 t-inv F
  0.500000  0.250000 -0.250000    0.00195312  29 t-inv F
 -0.500000 -0.250000 -0.750000    0.00195312  29 t-inv F
  0.250000 -0.500000 -0.250000    0.00195312  29 t-inv F
 -0.250000  0.250000 -0.500000    0.00195312  29 t-inv F
 -0.125000  0.000000  0.000000    0.00195312   2 t-inv T
  0.000000 -0.125000  0.000000    0.00195312   2 t-inv T
  0.000000  0.000000 -0.125000    0.00195312   2 t-inv T
  0.125000  0.125000  0.125000    0.00195312   2 t-inv T
 -0.250000  0.000000  0.000000    0.00195312   3 t-inv T
  0.000000 -0.250000  0.000000    0.00195312   3 t-inv T
  0.000000  0.000000 -0.250000    0.00195312   3 t-inv T
  0.250000  0.250000  0.250000    0.00195312   3 t-inv T
 -0.375000  0.000000  0.000000    0.00195312   4 t-inv T
  0.000000 -0.375000  0.000000    0.00195312   4 t-inv T
  0.000000  0.000000 -0.375000    0.00195312   4 t-inv T
  0.375000  0.375000  0.375000    0.00195312   4 t-inv T
 -0.250000 -0.125000  0.000000    0.00195312   7 t-inv T
  0.000000 -0.250000 -0.125000    0.00195312   7 t-inv T
 -0.125000  0.000000 -0.250000    0.00195312   7 t-inv T
  0.125000  0.125000 -0.125000    0.00195312   7 t-inv T
  0.250000  0.125000  0.250000    0.00195312   7 t-inv T
 -0.125000 -0.250000  0.000000    0.00195312   7 t-inv T
 -0.125000  0.125000  0.125000    0.00195312   7 t-inv T
  0.250000  0.250000  0.125000    0.00195312   7 t-inv T
  0.000000 -0.125000 -0.250000    0.00195312   7 t-inv T
  0.125000 -0.125000  0.125000    0.00195312   7 t-inv T
  0.125000  0.250000  0.250000    0.00195312   7 t-inv T
 -0.250000  0.000000 -0.125000    0.00195312   7 t-inv T
 -0.375000 -0.125000  0.000000    0.00195312   8 t-inv T
  0.000000 -0.375000 -0.125000    0.00195312   8 t-inv T
 -0.125000  0.000000 -0.375000    0.00195312   8 t-inv T
  0.125000  0.125000 -0.250000    0.00195312   8 t-inv T
  0.375000  0.250000  0.375000    0.00195312   8 t-inv T
 -0.125000 -0.375000  0.000000    0.00195312   8 t-inv T
 -0.250000  0.125000  0.125000    0.00195312   8 t-inv T
  0.375000  0.375000  0.250000    0.00195312   8 t-inv T
  0.000000 -0.125000 -0.375000    0.00195312   8 t-inv T
  0.125000 -0.250000  0.125000    0.00195312   8 t-inv T
  0.250000  0.375000  0.375000    0.00195312   8 t-inv T
 -0.375000  0.000000 -0.125000    0.00195312   8 t-inv T
 -0.500000 -0.125000  0.000000    0.00195312   9 t-inv T
  0.000000 -0.500000 -0.125000    0.00195312   9 t-inv T
 -0.125000  0.000000 -0.500000    0.00195312   9 t-inv T
  0.125000  0.125000 -0.375000    0.00195312   9 t-inv T
  0.500000  0.375000  0.500000    0.00195312   9 t-inv T
 -0.125000 -0.500000  0.000000    0.00195312   9 t-inv T
 -0.375000  0.125000  0.125000    0.00195312   9 t-inv T
  0.500000  0.500000  0.375000    0.00195312   9 t-inv T
  0.000000 -0.125000 -0.500000    0.00195312   9 t-inv T
  0.125000 -0.375000  0.125000    0.00195312   9 t-inv T
  0.375000  0.500000  0.500000    0.00195312   9 t-inv T
 -0.500000  0.000000 -0.125000    0.00195312   9 t-inv T
  0.375000 -0.125000  0.000000    0.00195312  10 t-inv T
  0.000000  0.375000 -0.125000    0.00195312  10 t-inv T
 -0.125000  0.000000  0.375000    0.00195312  10 t-inv T
  0.125000  0.125000  0.500000    0.00195312  10 t-inv T
 -0.375000 -0.500000 -0.375000    0.00195312  10 t-inv T
 -0.125000  0.375000  0.000000    0.00195312  10 t-inv T
  0.500000  0.125000  0.125000    0.00195312  10 t-inv T
 -0.375000 -0.375000 -0.500000    0.00195312  10 t-inv T
  0.000000 -0.125000  0.375000    0.00195312  10 t-inv T
  0.125000  0.500000  0.125000    0.00195312  10 t-inv T
 -0.500000 -0.375000 -0.375000    0.00195312  10 t-inv T
  0.375000  0.000000 -0.125000    0.00195312  10 t-inv T
  0.250000 -0.125000  0.000000    0.00195312  11 t-inv T
  0.000000  0.250000 -0.125000    0.00195312  11 t-inv T
 -0.125000  0.000000  0.250000    0.00195312  11 t-inv T
  0.125000  0.125000  0.375000    0.00195312  11 t-inv T
 -0.250000 -0.375000 -0.250000    0.00195312  11 t-inv T
 -0.125000  0.250000  0.000000    0.00195312  11 t-inv T
  0.375000  0.125000  0.125000    0.00195312  11 t-inv T
 -0.250000 -0.250000 -0.375000    0.00195312  11 t-inv T
  0.000000 -0.125000  0.250000    0.00195312  11 t-inv T
  0.125000  0.375000  0.125000    0.00195312  11 t-inv T
 -0.375000 -0.250000 -0.250000    0.00195312  11 t-inv T
  0.250000  0.000000 -0.125000    0.00195312  11 t-inv T
 -0.375000 -0.250000  0.000000    0.00195312  14 t-inv T
  0.000000 -0.375000 -0.250000    0.00195312  14 t-inv T
 -0.250000  0.000000 -0.375000    0.00195312  14 t-inv T
  0.250000  0.250000 -0.125000    0.00195312  14 t-inv T
  0.375000  0.125000  0.375000    0.00195312  14 t-inv T
 -0.250000 -0.375000  0.000000    0.00195312  14 t-inv T
 -0.125000  0.250000  0.250000    0.00195312  14 t-inv T
  0.375000  0.375000  0.125000    0.00195312  14 t-inv T
  0.000000 -0.250000 -0.375000    0.00195312  14 t-inv T
  0.250000 -0.125000  0.250000    0.00195312  14 t-inv T
  0.125000  0.375000  0.375000    0.00195312  14 t-inv T
 -0.375000  0.000000 -0.250000    0.00195312  14 t-inv T
 -0.500000 -0.250000  0.000000    0.00195312  15 t-inv T
  0.000000 -0.500000 -0.250000    0.00195312  15 t-inv T
 -0.250000  0.000000 -0.500000    0.00195312  15 t-inv T
  0.250000  0.250000 -0.250000    0.00195312  15 t-inv T
  0.500000  0.250000  0.500000    0.00195312  15 t-inv T
 -0.250000 -0.500000  0.000000    0.00195312  15 t-inv T
 -0.250000  0.250000  0.250000    0.00195312  15 t-inv T
  0.500000  0.500000  0.250000    0.00195312  15 t-inv T
  0.000000 -0.250000 -0.500000    0.00195312  15 t-inv T
  0.250000 -0.250000  0.250000    0.00195312  15 t-inv T
  0.250000  0.500000  0.500000    0.00195312  15 t-inv T
 -0.500000  0.000000 -0.250000    0.00195312  15 t-inv T
  0.375000 -0.250000  0.000000    0.00195312  16 t-inv T
  0.000000  0.375000 -0.250000    0.00195312  16 t-inv T
 -0.250000  0.000000  0.375000    0.00195312  16 t-inv T
  0.250000  0.250000  0.625000    0.00195312  16 t-inv T
 -0.375000 -0.625000 -0.375000    0.00195312  16 t-inv T
 -0.250000  0.375000  0.000000    0.00195312  16 t-inv T
  0.625000  0.250000  0.250000    0.00195312  16 t-inv T
 -0.375000 -0.375000 -0.625000    0.00195312  16 t-inv T
  0.000000 -0.250000  0.375000    0.00195312  16 t-inv T
  0.250000  0.625000  0.250000    0.00195312  16 t-inv T
 -0.625000 -0.375000 -0.375000    0.00195312  16 t-inv T
  0.375000  0.000000 -0.250000    0.00195312  16 t-inv T
 -0.500000 -0.375000  0.000000    0.00195312  19 t-inv T
  0.000000 -0.500000 -0.375000    0.00195312  19 t-inv T
 -0.375000  0.000000 -0.500000    0.00195312  19 t-inv T
  0.375000  0.375000 -0.125000    0.00195312  19 t-inv T
  0.500000  0.125000  0.500000    0.00195312  19 t-inv T
 -0.375000 -0.500000  0.000000    0.00195312  19 t-inv T
 -0.125000  0.375000  0.375000    0.00195312  19 t-inv T
  0.500000  0.500000  0.125000    0.00195312  19 t-inv T
  0.000000 -0.375000 -0.500000    0.00195312  19 t-inv T
  0.375000 -0.125000  0.375000    0.00195312  19 t-inv T
  0.125000  0.500000  0.500000    0.00195312  19 t-inv T
 -0.500000  0.000000 -0.375000    0.00195312  19 t-inv T
 -0.500000 -0.250000 -0.125000    0.00195312  23 t-inv T
 -0.125000 -0.500000 -0.250000    0.00195312  23 t-inv T
 -0.250000 -0.125000 -0.500000    0.00195312  23 t-inv T
  0.250000  0.125000 -0.250000    0.00195312  23 t-inv T
  0.500000  0.250000  0.375000    0.00195312  23 t-inv T
  0.125000 -0.375000 -0.125000    0.00195312  23 t-inv T
 -0.125000 -0.375000  0.125000    0.00195312  23 t-inv T
 -0.250000  0.125000  0.250000    0.00195312  23 t-inv T
  0.375000  0.250000  0.500000    0.00195312  23 t-inv T
  0.375000  0.500000  0.250000    0.00195312  23 t-inv T
 -0.125000  0.125000 -0.375000    0.00195312  23 t-inv T
 -0.250000  0.250000  0.125000    0.00195312  23 t-inv T
  0.125000 -0.125000 -0.375000    0.00195312  23 t-inv T
  0.250000 -0.250000  0.125000    0.00195312  23 t-inv T
  0.500000  0.375000  0.250000    0.00195312  23 t-inv T
  0.250000  0.375000  0.500000    0.00195312  23 t-inv T
 -0.375000 -0.125000  0.125000    0.00195312  23 t-inv T
  0.125000 -0.250000  0.250000    0.00195312  23 t-inv T
 -0.375000  0.125000 -0.125000    0.00195312  23 t-inv T
  0.125000  0.250000 -0.250000    0.00195312  23 t-inv T
  0.250000  0.500000  0.375000    0.00195312  23 t-inv T
 -0.500000 -0.125000 -0.250000    0.00195312  23 t-inv T
 -0.250000 -0.500000 -0.125000    0.00195312  23 t-inv T
 -0.125000 -0.250000 -0.500000    0.00195312  23 t-inv T
  0.375000 -0.375000 -0.125000    0.00195312  26 t-inv T
 -0.125000  0.375000 -0.375000    0.00195312  26 t-inv T
 -0.375000 -0.125000  0.375000    0.00195312  26 t-inv T
  0.375000  0.250000  0.750000    0.00195312  26 t-inv T
 -0.375000 -0.750000 -0.500000    0.00195312  26 t-inv T
  0.125000  0.500000 -0.250000    0.00195312  26 t-inv T
 -0.250000  0.500000  0.125000    0.00195312  26 t-inv T
  0.750000  0.250000  0.375000    0.00195312  26 t-inv T
 -0.500000 -0.750000 -0.375000    0.00195312  26 t-inv T
 -0.500000 -0.375000 -0.750000    0.00195312  26 t-inv T
 -0.250000  0.125000  0.500000    0.00195312  26 t-inv T
  0.750000  0.375000  0.250000    0.00195312  26 t-inv T
  0.125000 -0.250000  0.500000    0.00195312  26 t-inv T
  0.375000  0.750000  0.250000    0.00195312  26 t-inv T
 -0.375000 -0.500000 -0.750000    0.00195312  26 t-inv T
 -0.750000 -0.500000 -0.375000    0.00195312  26 t-inv T
  0.500000 -0.250000  0.125000    0.00195312  26 t-inv T
  0.250000  0.750000  0.375000    0.00195312  26 t-inv T
  0.500000  0.125000 -0.250000    0.00195312  26 t-inv T
  0.250000  0.375000  0.750000    0.00195312  26 t-inv T
 -0.750000 -0.375000 -0.500000    0.00195312  26 t-inv T
  0.375000 -0.125000 -0.375000    0.00195312  26 t-inv T
 -0.375000  0.375000 -0.125000    0.00195312  26 t-inv T
 -0.125000 -0.375000  0.375000    0.00195312  26 t-inv T


--------------------------------------------------------------------------------------------------------




 Dimension of arrays:
   k-points           NKPTS =    163   k-points in BZ     NKDIM =    646   number of bands    NBANDS=     16
   number of dos      NEDOS =    301   number of ions     NIONS =      2
   non local maximal  LDIM  =      6   non local SUM 2l+1 LMDIM =     18
   total plane-waves  NPLWV =  21952
   max r-space proj   IRMAX =      1   max aug-charges    IRDMAX= 218422
   dimension x,y,z NGX =    28 NGY =   28 NGZ =   28
   dimension x,y,z NGXF=    56 NGYF=   56 NGZF=   56
   support grid    NGXF=   112 NGYF=  112 NGZF=  112
   ions per type =               1   1
   NGX,Y,Z   is equivalent  to a cutoff of  12.80, 12.80, 12.80 a.u.
   NGXF,Y,Z  is equivalent  to a cutoff of  25.60, 25.60, 25.60 a.u.

 SYSTEM =  matgen                                  
 POSCAR =  Cd1 N1                                  

 Startparameter for this run:
   NWRITE =      2    write-flag & timer
   PREC   = accura    normal or accurate (medium, high low for compatibility)
   ISTART =      1    job   : 0-new  1-cont  2-samecut
   ICHARG =     11    charge: 1-file 2-atom 10-const
   ISPIN  =      2    spin polarized calculation?
   LNONCOLLINEAR =      F non collinear calculations
   LSORBIT =      F    spin-orbit coupling
   INIWAV =      1    electr: 0-lowe 1-rand  2-diag
   LASPH  =      F    aspherical Exc in radial PAW
   METAGGA=      F    non-selfconsistent MetaGGA calc.

 Electronic Relaxation 1
   ENCUT  =  520.0 eV  38.22 Ry    6.18 a.u.   6.76  6.76  6.76*2*pi/ulx,y,z
   ENINI  =  520.0     initial cutoff
   ENAUG  =  627.1 eV  augmentation charge cutoff
   NELM   =    140;   NELMIN=  6; NELMDL=  0     # of ELM steps 
   EDIFF  = 0.1E-03   stopping-criterion for ELM
   LREAL  =      F    real-space projection
   NLSPLINE    = F    spline interpolate recip. space projectors
   LCOMPAT=      F    compatible to vasp.4.4
   GGA_COMPAT  = T    GGA compatible to vasp.4.4-vasp.4.6
   LMAXPAW     = -100 max onsite density
   LMAXMIX     =    4 max onsite mixed and CHGCAR
   VOSKOWN=      0    Vosko Wilk Nusair interpolation
   ROPT   =    0.00000   0.00000
 Ionic relaxation
   EDIFFG = -.1E-01   stopping-criterion for IOM
   NSW    =      0    number of steps for IOM
   NBLOCK =      1;   KBLOCK =      1    inner block; outer block 
   IBRION =     -1    ionic relax: 0-MD 1-quasi-New 2-CG
   NFREE  =      0    steps in history (QN), initial steepest desc. (CG)
   ISIF   =      0    stress and relaxation
   IWAVPR =     10    prediction:  0-non 1-charg 2-wave 3-comb
   ISYM   =      3    0-nonsym 1-usesym 2-fastsym
   LCORR  =      T    Harris-Foulkes like correction to forces

   POTIM  = 0.0500    time-step for ionic-motion
   TEIN   =    0.0    initial temperature
   TEBEG  =    0.0;   TEEND  =   0.0 temperature during run
   SMASS  =  -3.00    Nose mass-parameter (am)
   estimated Nose-frequenzy (Omega)   =  0.10E-29 period in steps =****** mass=  -0.302E-27a.u.
   SCALEE = 1.0000    scale energy and forces
   NPACO  =    256;   APACO  = 16.0  distance and # of slots for P.C.
   PSTRESS=    0.0 pullay stress

  Mass of Ions in am
   POMASS = 112.41 14.00
  Ionic Valenz
   ZVAL   =  12.00  5.00
  Atomic Wigner-Seitz radii
   RWIGS  =  -1.00 -1.00
  virtual crystal weights 
   VCA    =   1.00  1.00
   NELECT =      17.0000    total number of electrons
   NUPDOWN=      -1.0000    fix difference up-down

 DOS related values:
   EMIN   =  10.00;   EMAX   =-10.00  energy-range for DOS
   EFERMI =   0.00
   ISMEAR =     0;   SIGMA  =   0.05  broadening in eV -4-tet -1-fermi 0-gaus

 Electronic relaxation 2 (details)
   IALGO  =     53    algorithm
   LDIAG  =      T    sub-space diagonalisation (order eigenvalues)
   LSUBROT=      F    optimize rotation matrix (better conditioning)
   TURBO    =      0    0=normal 1=particle mesh
   IRESTART =      0    0=no restart 2=restart with 2 vectors
   NREBOOT  =      0    no. of reboots
   NMIN     =      0    reboot dimension
   EREF     =   0.00    reference energy to select bands
   IMIX   =      4    mixing-type and parameters
     AMIX     =   0.10;   BMIX     =  1.20
     AMIX_MAG =   0.40;   BMIX_MAG =  1.20
     AMIN     =   0.10
     WC   =   100.;   INIMIX=   1;  MIXPRE=   1;  MAXMIX= -45

 Intra band minimization:
   WEIMIN = 0.0000     energy-eigenvalue tresh-hold
   EBREAK =  0.16E-05  absolut break condition
   DEPER  =   0.30     relativ break condition  

   TIME   =   0.40     timestep for ELM

  volume/ion in A,a.u.               =      17.01       114.82
  Fermi-wavevector in a.u.,A,eV,Ry     =   1.299013  2.454778 22.958937  1.687434
  Thomas-Fermi vector in A             =   2.430304
 
 Write flags
   LWAVE        =      F    write WAVECAR
   LDOWNSAMPLE  =      F    k-point downsampling of WAVECAR
   LCHARG       =      T    write CHGCAR
   LVTOT        =      F    write LOCPOT, total local potential
   LVHAR        =      F    write LOCPOT, Hartree potential only
   LELF         =      F    write electronic localiz. function (ELF)
   LORBIT       =     11    0 simple, 1 ext, 2 COOP (PROOUT), +10 PAW based schemes


 Dipole corrections
   LMONO  =      F    monopole corrections only (constant potential shift)
   LDIPOL =      F    correct potential (dipole corrections)
   IDIPOL =      0    1-x, 2-y, 3-z, 4-all directions 
   EPSILON=  1.0000000 bulk dielectric constant

 LDA+U is selected, type is set to LDAUTYPE =  2
   angular momentum for each species LDAUL =     2   -1
   U (eV)           for each species LDAUU =   2.1  0.0
   J (eV)           for each species LDAUJ =   0.0  0.0
 Exchange correlation treatment:
   GGA     =    --    GGA type
   LEXCH   =     8    internal setting for exchange type
   VOSKOWN=      0    Vosko Wilk Nusair interpolation
   EXXOEP  =     0    0=HF, 1=EXX-LHF (local Hartree Fock) 2=EXX OEP
   LHFCALC =     T    Hartree Fock is set to
   LSYMGRAD=     F    symmetrize gradient (conserves proper symmetry)
   PRECFOCK=normal    Normal, Fast or Accurate (Low or Medium for compatibility)
   LRHFCALC=     F    long range Hartree Fock
   LRSCOR  =     F    long range correlation only (use DFT for short range part)
   LTHOMAS =     F    Thomas Fermi screening in HF
   LMODELHF=     F    short range full HF, long range fraction AEXX
   ENCUT4O =  -1.0   cutoff for four orbital integrals eV
   LMAXFOCK=     4    L truncation for augmentation on plane wave grid
   LMAXFOCKAE=  -1    L truncation for all-electron charge restoration on plane wave grid
   NMAXFOCKAE=   1    number of basis functions for all-electron charge restoration
   LFOCKAEDFT=     F  apply the AE augmentation even for DFT
   NKREDX  =     1    reduce k-point grid by
   NKREDY  =     1    reduce k-point grid by
   NKREDZ  =     1    reduce k-point grid by
   SHIFTRED=     F    shift reduced grid of Gamma
   HFKIDENT=     F    idential grid for each k-point
   ODDONLY =     F    use only odd q-grid points
   EVENONLY=     F    use only even q-grid points
   HFALPHA =   -1.0000 decay constant for conv. correction
   MCALPHA =    0.0000 extent of test-charge in conv. correction in multipole expansion
   AEXX    =    0.2500 exact exchange contribution
   HFSCREEN=    0.2000 screening length (either q_TF or 0.3 A-1)
   HFSCREENC=   0.2000 screening length for correlation (either q_TF or 0.3 A-1)
   HFRCUT  =    0.0000 spherical cutoff for potential kernel
   ALDAX   =    0.7500 LDA exchange part
   AGGAX   =    0.7500 GGA exchange part
   ALDAC   =    1.0000 LDA correlation
   AGGAC   =    1.0000 GGA correlation
   ENCUTFOCK=  -1.0 apply spherical cutoff to Coloumb kernel
   NBANDSGWLOW=     1    first orbital included in HF term
   NBLOCK_FOCK=    64    blocking factor in FOCK_ACC
 Linear response parameters
   LEPSILON=     F    determine dielectric tensor
   LRPA    =     F    only Hartree local field effects (RPA)
   LNABLA  =     F    use nabla operator in PAW spheres
   LVEL    =     F    velocity operator in full k-point grid
   LINTERFAST=   F  fast interpolation
   KINTER  =     0    interpolate to denser k-point grid
   CSHIFT  =0.1000    complex shift for real part using Kramers Kronig
   OMEGAMAX=  -1.0    maximum frequency
   DEG_THRESHOLD= 0.2000000E-02 threshold for treating states as degnerate
   RTIME   =   -0.100 relaxation time in fs
  (WPLASMAI=    0.000 imaginary part of plasma frequency in eV, 0.658/RTIME)
   DFIELD  = 0.0000000 0.0000000 0.0000000 field for delta impulse in time
 
 Orbital magnetization related:
   ORBITALMAG=     F  switch on orbital magnetization
   LCHIMAG   =     F  perturbation theory with respect to B field
   DQ        =  0.001000  dq finite difference perturbation B field
   LLRAUG    =     F  two centre corrections for induced B field



--------------------------------------------------------------------------------------------------------


 Static calculation
 charge density and potential remain constant during run
 spin polarized calculation
 Conjugate gradient for all bands (Freysoldt, et al. PRB 79, 241103 (2009))
 perform sub-space diagonalisation
    before iterative eigenvector-optimisation
 no mixing
 using additional bands            7
 reciprocal scheme for non local part
 use partial core corrections
 calculate Harris-corrections to forces 
   (improved forces if not selfconsistent)
 use gradient corrections 
 WARNING: stress and forces are not correct
  (second derivative of E(xc) not defined)
 use of overlap-Matrix (Vanderbilt PP)
 Gauss-broadening in eV      SIGMA  =   0.05


--------------------------------------------------------------------------------------------------------


  energy-cutoff  :      520.00
  volume of cell :       34.03
      direct lattice vectors                 reciprocal lattice vectors
     0.000000000  2.571980736  2.571980736    -0.194402700  0.194402700  0.194402700
     2.571980736  0.000000000  2.571980736     0.194402700 -0.194402700  0.194402700
     2.571980736  2.571980736  0.000000000     0.194402700  0.194402700 -0.194402700

  length of vectors
     3.637330039  3.637330039  3.637330039     0.336715354  0.336715354  0.336715354


 
 old parameters found on file WAVECAR:
  energy-cutoff  :      520.00
  volume of cell :       34.03
      direct lattice vectors                 reciprocal lattice vectors
     0.000000000  2.571980736  2.571980736    -0.194402700  0.194402700  0.194402700
     2.571980736  0.000000000  2.571980736     0.194402700 -0.194402700  0.194402700
     2.571980736  2.571980736  0.000000000     0.194402700  0.194402700 -0.194402700

  length of vectors

 
 k-points in units of 2pi/SCALE and weight: 0.040   8   8   8   29  0.040  134    6 
   0.00000000  0.00000000  0.00000000       0.002
  -0.02430034  0.02430034  0.02430034       0.016
  -0.04860068  0.04860068  0.04860068       0.016
  -0.07290101  0.07290101  0.07290101       0.016
  -0.09720135  0.09720135  0.09720135       0.008
   0.00000000  0.00000000  0.04860068       0.012
  -0.02430034  0.02430034  0.07290101       0.047
  -0.04860068  0.04860068  0.09720135       0.047
  -0.07290101  0.07290101  0.12150169       0.047
   0.09720135 -0.09720135 -0.04860068       0.047
   0.07290101 -0.07290101 -0.02430034       0.047
   0.04860068 -0.04860068  0.00000000       0.023
   0.00000000  0.00000000  0.09720135       0.012
  -0.02430034  0.02430034  0.12150169       0.047
  -0.04860068  0.04860068  0.14580203       0.047
   0.12150169 -0.12150169 -0.02430034       0.047
   0.09720135 -0.09720135  0.00000000       0.023
   0.00000000  0.00000000  0.14580203       0.012
  -0.02430034  0.02430034  0.17010236       0.047
   0.14580203 -0.14580203  0.00000000       0.023
   0.00000000  0.00000000  0.19440270       0.006
  -0.00000000  0.04860068  0.09720135       0.047
  -0.02430034  0.07290101  0.12150169       0.094
   0.14580203 -0.09720135 -0.04860068       0.047
   0.00000000  0.04860068  0.14580203       0.047
   0.17010236 -0.12150169 -0.02430034       0.094
   0.14580203 -0.09720135  0.00000000       0.047
   0.19440270 -0.14580203 -0.00000000       0.023
   0.19440270 -0.09720135  0.00000000       0.012
   0.00000000  0.00000000  0.00000000       0.000
   0.00000000  0.00670354  0.00000000       0.000
   0.00000000  0.01340708  0.00000000       0.000
   0.00000000  0.02011062  0.00000000       0.000
   0.00000000  0.02681417  0.00000000       0.000
   0.00000000  0.03351771  0.00000000       0.000
   0.00000000  0.04022125  0.00000000       0.000
   0.00000000  0.04692479  0.00000000       0.000
   0.00000000  0.05362833  0.00000000       0.000
   0.00000000  0.06033187  0.00000000       0.000
   0.00000000  0.06703541  0.00000000       0.000
   0.00000000  0.07373896  0.00000000       0.000
   0.00000000  0.08044250  0.00000000       0.000
   0.00000000  0.08714604  0.00000000       0.000
   0.00000000  0.09384958  0.00000000       0.000
   0.00000000  0.10055312  0.00000000       0.000
   0.00000000  0.10725666  0.00000000       0.000
   0.00000000  0.11396020  0.00000000       0.000
   0.00000000  0.12066374  0.00000000       0.000
   0.00000000  0.12736729  0.00000000       0.000
   0.00000000  0.13407083  0.00000000       0.000
   0.00000000  0.14077437  0.00000000       0.000
   0.00000000  0.14747791  0.00000000       0.000
   0.00000000  0.15418145  0.00000000       0.000
   0.00000000  0.16088499  0.00000000       0.000
   0.00000000  0.16758853  0.00000000       0.000
   0.00000000  0.17429208  0.00000000       0.000
   0.00000000  0.18099562  0.00000000       0.000
   0.00000000  0.18769916  0.00000000       0.000
   0.00000000  0.19440270  0.00000000       0.000
   0.00000000  0.19440270  0.00000000       0.000
   0.00540008  0.19440270  0.00540008       0.000
   0.01080015  0.19440270  0.01080015       0.000
   0.01620023  0.19440270  0.01620023       0.000
   0.02160030  0.19440270  0.02160030       0.000
   0.02700038  0.19440270  0.02700038       0.000
   0.03240045  0.19440270  0.03240045       0.000
   0.03780053  0.19440270  0.03780053       0.000
   0.04320060  0.19440270  0.04320060       0.000
   0.04860068  0.19440270  0.04860068       0.000
   0.14580203  0.14580203  0.00000000       0.000
   0.14109873  0.14109873  0.00000000       0.000
   0.13639544  0.13639544 -0.00000000       0.000
   0.13169215  0.13169215 -0.00000000       0.000
   0.12698886  0.12698886  0.00000000       0.000
   0.12228557  0.12228557  0.00000000       0.000
   0.11758228  0.11758228  0.00000000       0.000
   0.11287899  0.11287899  0.00000000       0.000
   0.10817570  0.10817570 -0.00000000       0.000
   0.10347240  0.10347240 -0.00000000       0.000
   0.09876911  0.09876911  0.00000000       0.000
   0.09406582  0.09406582  0.00000000       0.000
   0.08936253  0.08936253  0.00000000       0.000
   0.08465924  0.08465924  0.00000000       0.000
   0.07995595  0.07995595 -0.00000000       0.000
   0.07525266  0.07525266 -0.00000000       0.000
   0.07054937  0.07054937  0.00000000       0.000
   0.06584608  0.06584608  0.00000000       0.000
   0.06114278  0.06114278  0.00000000       0.000
   0.05643949  0.05643949  0.00000000       0.000
   0.05173620  0.05173620  0.00000000       0.000
   0.04703291  0.04703291 -0.00000000       0.000
   0.04232962  0.04232962  0.00000000       0.000
   0.03762633  0.03762633  0.00000000       0.000
   0.03292304  0.03292304  0.00000000       0.000
   0.02821975  0.02821975  0.00000000       0.000
   0.02351646  0.02351646  0.00000000       0.000
   0.01881316  0.01881316 -0.00000000       0.000
   0.01410987  0.01410987  0.00000000       0.000
   0.00940658  0.00940658  0.00000000       0.000
   0.00470329  0.00470329  0.00000000       0.000
   0.00000000  0.00000000  0.00000000       0.000
   0.00000000  0.00000000  0.00000000       0.000
   0.00388805  0.00388805  0.00388805       0.000
   0.00777611  0.00777611  0.00777611       0.000
   0.01166416  0.01166416  0.01166416       0.000
   0.01555222  0.01555222  0.01555222       0.000
   0.01944027  0.01944027  0.01944027       0.000
   0.02332832  0.02332832  0.02332832       0.000
   0.02721638  0.02721638  0.02721638       0.000
   0.03110443  0.03110443  0.03110443       0.000
   0.03499249  0.03499249  0.03499249       0.000
   0.03888054  0.03888054  0.03888054       0.000
   0.04276859  0.04276859  0.04276859       0.000
   0.04665665  0.04665665  0.04665665       0.000
   0.05054470  0.05054470  0.05054470       0.000
   0.05443276  0.05443276  0.05443276       0.000
   0.05832081  0.05832081  0.05832081       0.000
   0.06220886  0.06220886  0.06220886       0.000
   0.06609692  0.06609692  0.06609692       0.000
   0.06998497  0.06998497  0.06998497       0.000
   0.07387303  0.07387303  0.07387303       0.000
   0.07776108  0.07776108  0.07776108       0.000
   0.08164913  0.08164913  0.08164913       0.000
   0.08553719  0.08553719  0.08553719       0.000
   0.08942524  0.08942524  0.08942524       0.000
   0.09331330  0.09331330  0.09331330       0.000
   0.09720135  0.09720135  0.09720135       0.000
   0.09720135  0.09720135  0.09720135       0.000
   0.09720135  0.10206142  0.09234128       0.000
   0.09720135  0.10692149  0.08748122       0.000
   0.09720135  0.11178155  0.08262115       0.000
   0.09720135  0.11664162  0.07776108       0.000
   0.09720135  0.12150169  0.07290101       0.000
   0.09720135  0.12636176  0.06804095       0.000
   0.09720135  0.13122182  0.06318088       0.000
   0.09720135  0.13608189  0.05832081       0.000
   0.09720135  0.14094196  0.05346074       0.000
   0.09720135  0.14580203  0.04860068       0.000
   0.09720135  0.15066209  0.04374061       0.000
   0.09720135  0.15552216  0.03888054       0.000
   0.09720135  0.16038223  0.03402047       0.000
   0.09720135  0.16524230  0.02916041       0.000
   0.09720135  0.17010236  0.02430034       0.000
   0.09720135  0.17496243  0.01944027       0.000
   0.09720135  0.17982250  0.01458020       0.000
   0.09720135  0.18468257  0.00972014       0.000
   0.09720135  0.18954263  0.00486007       0.000
   0.09720135  0.19440270  0.00000000       0.000
   0.09720135  0.19440270  0.00000000       0.000
   0.09025840  0.19440270  0.00000000       0.000
   0.08331544  0.19440270  0.00000000       0.000
   0.07637249  0.19440270  0.00000000       0.000
   0.06942954  0.19440270 -0.00000000       0.000
   0.06248658  0.19440270  0.00000000       0.000
   0.05554363  0.19440270  0.00000000       0.000
   0.04860068  0.19440270  0.00000000       0.000
   0.04165772  0.19440270  0.00000000       0.000
   0.03471477  0.19440270  0.00000000       0.000
   0.02777181  0.19440270  0.00000000       0.000
   0.02082886  0.19440270 -0.00000000       0.000
   0.01388591  0.19440270 -0.00000000       0.000
   0.00694295  0.19440270  0.00000000       0.000
   0.00000000  0.19440270  0.00000000       0.000
 
 k-points in reciprocal lattice and weights: 0.040   8   8   8   29  0.040  134    6 
   0.00000000  0.00000000  0.00000000       0.002
   0.12500000  0.00000000  0.00000000       0.016
   0.25000000  0.00000000  0.00000000       0.016
   0.37500000  0.00000000  0.00000000       0.016
   0.50000000  0.00000000  0.00000000       0.008
   0.12500000  0.12500000  0.00000000       0.012
   0.25000000  0.12500000  0.00000000       0.047
   0.37500000  0.12500000  0.00000000       0.047
   0.50000000  0.12500000  0.00000000       0.047
  -0.37500000  0.12500000  0.00000000       0.047
  -0.25000000  0.12500000  0.00000000       0.047
  -0.12500000  0.12500000  0.00000000       0.023
   0.25000000  0.25000000  0.00000000       0.012
   0.37500000  0.25000000  0.00000000       0.047
   0.50000000  0.25000000  0.00000000       0.047
  -0.37500000  0.25000000  0.00000000       0.047
  -0.25000000  0.25000000  0.00000000       0.023
   0.37500000  0.37500000  0.00000000       0.012
   0.50000000  0.37500000  0.00000000       0.047
  -0.37500000  0.37500000  0.00000000       0.023
   0.50000000  0.50000000  0.00000000       0.006
   0.37500000  0.25000000  0.12500000       0.047
   0.50000000  0.25000000  0.12500000       0.094
  -0.37500000  0.25000000  0.12500000       0.047
   0.50000000  0.37500000  0.12500000       0.047
  -0.37500000  0.37500000  0.12500000       0.094
  -0.25000000  0.37500000  0.12500000       0.047
  -0.37500000  0.50000000  0.12500000       0.023
  -0.25000000  0.50000000  0.25000000       0.012
   0.00000000  0.00000000  0.00000000       0.000
   0.01724138  0.00000000  0.01724138       0.000
   0.03448276  0.00000000  0.03448276       0.000
   0.05172414  0.00000000  0.05172414       0.000
   0.06896552  0.00000000  0.06896552       0.000
   0.08620690  0.00000000  0.08620690       0.000
   0.10344828  0.00000000  0.10344828       0.000
   0.12068966  0.00000000  0.12068966       0.000
   0.13793103  0.00000000  0.13793103       0.000
   0.15517241  0.00000000  0.15517241       0.000
   0.17241379  0.00000000  0.17241379       0.000
   0.18965517  0.00000000  0.18965517       0.000
   0.20689655  0.00000000  0.20689655       0.000
   0.22413793  0.00000000  0.22413793       0.000
   0.24137931  0.00000000  0.24137931       0.000
   0.25862069  0.00000000  0.25862069       0.000
   0.27586207  0.00000000  0.27586207       0.000
   0.29310345  0.00000000  0.29310345       0.000
   0.31034483  0.00000000  0.31034483       0.000
   0.32758621  0.00000000  0.32758621       0.000
   0.34482759  0.00000000  0.34482759       0.000
   0.36206897  0.00000000  0.36206897       0.000
   0.37931034  0.00000000  0.37931034       0.000
   0.39655172  0.00000000  0.39655172       0.000
   0.41379310  0.00000000  0.41379310       0.000
   0.43103448  0.00000000  0.43103448       0.000
   0.44827586  0.00000000  0.44827586       0.000
   0.46551724  0.00000000  0.46551724       0.000
   0.48275862  0.00000000  0.48275862       0.000
   0.50000000  0.00000000  0.50000000       0.000
   0.50000000  0.00000000  0.50000000       0.000
   0.51388889  0.02777778  0.51388889       0.000
   0.52777778  0.05555556  0.52777778       0.000
   0.54166667  0.08333333  0.54166667       0.000
   0.55555556  0.11111111  0.55555556       0.000
   0.56944444  0.13888889  0.56944444       0.000
   0.58333333  0.16666667  0.58333333       0.000
   0.59722222  0.19444444  0.59722222       0.000
   0.61111111  0.22222222  0.61111111       0.000
   0.62500000  0.25000000  0.62500000       0.000
   0.37500000  0.37500000  0.75000000       0.000
   0.36290323  0.36290323  0.72580645       0.000
   0.35080645  0.35080645  0.70161290       0.000
   0.33870968  0.33870968  0.67741935       0.000
   0.32661290  0.32661290  0.65322581       0.000
   0.31451613  0.31451613  0.62903226       0.000
   0.30241935  0.30241935  0.60483871       0.000
   0.29032258  0.29032258  0.58064516       0.000
   0.27822581  0.27822581  0.55645161       0.000
   0.26612903  0.26612903  0.53225806       0.000
   0.25403226  0.25403226  0.50806452       0.000
   0.24193548  0.24193548  0.48387097       0.000
   0.22983871  0.22983871  0.45967742       0.000
   0.21774194  0.21774194  0.43548387       0.000
   0.20564516  0.20564516  0.41129032       0.000
   0.19354839  0.19354839  0.38709677       0.000
   0.18145161  0.18145161  0.36290323       0.000
   0.16935484  0.16935484  0.33870968       0.000
   0.15725806  0.15725806  0.31451613       0.000
   0.14516129  0.14516129  0.29032258       0.000
   0.13306452  0.13306452  0.26612903       0.000
   0.12096774  0.12096774  0.24193548       0.000
   0.10887097  0.10887097  0.21774194       0.000
   0.09677419  0.09677419  0.19354839       0.000
   0.08467742  0.08467742  0.16935484       0.000
   0.07258065  0.07258065  0.14516129       0.000
   0.06048387  0.06048387  0.12096774       0.000
   0.04838710  0.04838710  0.09677419       0.000
   0.03629032  0.03629032  0.07258065       0.000
   0.02419355  0.02419355  0.04838710       0.000
   0.01209677  0.01209677  0.02419355       0.000
   0.00000000  0.00000000  0.00000000       0.000
   0.00000000  0.00000000  0.00000000       0.000
   0.02000000  0.02000000  0.02000000       0.000
   0.04000000  0.04000000  0.04000000       0.000
   0.06000000  0.06000000  0.06000000       0.000
   0.08000000  0.08000000  0.08000000       0.000
   0.10000000  0.10000000  0.10000000       0.000
   0.12000000  0.12000000  0.12000000       0.000
   0.14000000  0.14000000  0.14000000       0.000
   0.16000000  0.16000000  0.16000000       0.000
   0.18000000  0.18000000  0.18000000       0.000
   0.20000000  0.20000000  0.20000000       0.000
   0.22000000  0.22000000  0.22000000       0.000
   0.24000000  0.24000000  0.24000000       0.000
   0.26000000  0.26000000  0.26000000       0.000
   0.28000000  0.28000000  0.28000000       0.000
   0.30000000  0.30000000  0.30000000       0.000
   0.32000000  0.32000000  0.32000000       0.000
   0.34000000  0.34000000  0.34000000       0.000
   0.36000000  0.36000000  0.36000000       0.000
   0.38000000  0.38000000  0.38000000       0.000
   0.40000000  0.40000000  0.40000000       0.000
   0.42000000  0.42000000  0.42000000       0.000
   0.44000000  0.44000000  0.44000000       0.000
   0.46000000  0.46000000  0.46000000       0.000
   0.48000000  0.48000000  0.48000000       0.000
   0.50000000  0.50000000  0.50000000       0.000
   0.50000000  0.50000000  0.50000000       0.000
   0.50000000  0.48750000  0.51250000       0.000
   0.50000000  0.47500000  0.52500000       0.000
   0.50000000  0.46250000  0.53750000       0.000
   0.50000000  0.45000000  0.55000000       0.000
   0.50000000  0.43750000  0.56250000       0.000
   0.50000000  0.42500000  0.57500000       0.000
   0.50000000  0.41250000  0.58750000       0.000
   0.50000000  0.40000000  0.60000000       0.000
   0.50000000  0.38750000  0.61250000       0.000
   0.50000000  0.37500000  0.62500000       0.000
   0.50000000  0.36250000  0.63750000       0.000
   0.50000000  0.35000000  0.65000000       0.000
   0.50000000  0.33750000  0.66250000       0.000
   0.50000000  0.32500000  0.67500000       0.000
   0.50000000  0.31250000  0.68750000       0.000
   0.50000000  0.30000000  0.70000000       0.000
   0.50000000  0.28750000  0.71250000       0.000
   0.50000000  0.27500000  0.72500000       0.000
   0.50000000  0.26250000  0.73750000       0.000
   0.50000000  0.25000000  0.75000000       0.000
   0.50000000  0.25000000  0.75000000       0.000
   0.50000000  0.23214286  0.73214286       0.000
   0.50000000  0.21428571  0.71428571       0.000
   0.50000000  0.19642857  0.69642857       0.000
   0.50000000  0.17857143  0.67857143       0.000
   0.50000000  0.16071429  0.66071429       0.000
   0.50000000  0.14285714  0.64285714       0.000
   0.50000000  0.12500000  0.62500000       0.000
   0.50000000  0.10714286  0.60714286       0.000
   0.50000000  0.08928571  0.58928571       0.000
   0.50000000  0.07142857  0.57142857       0.000
   0.50000000  0.05357143  0.55357143       0.000
   0.50000000  0.03571429  0.53571429       0.000
   0.50000000  0.01785714  0.51785714       0.000
   0.50000000  0.00000000  0.50000000       0.000
 
[...]

 k-point   153 :       0.5000    0.1786    0.6786
  band No.  band energies     occupation 
      1     -13.6185      1.00000
      2      -9.3075      1.00000
      3      -9.1292      1.00000
      4      -8.9350      1.00000
      5      -8.8634      1.00000
      6      -7.7397      1.00000
      7      -2.5712      1.00000
      8      -0.9313      1.00000
      9      -0.7407      1.00000
     10       7.4181      0.00000
     11       9.7318      0.00000
     12      11.4009      0.00000
     13      11.7853      0.00000
     14      16.0872      0.00000
     15      20.6789      0.00000
     16      25.5641      0.00000

 k-point   154 :       0.5000    0.1607    0.6607
  band No.  band energies     occupation 
      1     -13.6183      1.00000
      2      -9.3199      1.00000
      3      -9.1096      1.00000
      4      -8.9312      1.00000
      5      -8.8580      1.00000
      6      -7.7748      1.00000
      7      -2.5888      1.00000
      8      -0.8711      1.00000
      9      -0.6964      1.00000
     10       7.1772      0.00000
     11       9.6872      0.00000
     12      11.4245      0.00000
     13      12.1149      0.00000
     14      15.7432      0.00000
     15      21.2737      0.00000
     16      25.5017      0.00000

 k-point   155 :       0.5000    0.1429    0.6429
  band No.  band energies     occupation 
      1     -13.6180      1.00000
      2      -9.3330      1.00000
      3      -9.0865      1.00000
      4      -8.9277      1.00000
      5      -8.8517      1.00000
      6      -7.8148      1.00000
      7      -2.6076      1.00000
      8      -0.8026      1.00000
      9      -0.6476      1.00000
     10       6.9324      0.00000
     11       9.6372      0.00000
     12      11.4467      0.00000
     13      12.4609      0.00000
     14      15.4003      0.00000
     15      21.9740      0.00000
     16      25.0750      0.00000

 k-point   156 :       0.5000    0.1250    0.6250
  band No.  band energies     occupation 
      1     -13.6176      1.00000
      2      -9.3463      1.00000
      3      -9.0608      1.00000
      4      -8.9248      1.00000
      5      -8.8449      1.00000
      6      -7.8582      1.00000
      7      -2.6265      1.00000
      8      -0.7289      1.00000
      9      -0.5967      1.00000
     10       6.6944      0.00000
     11       9.5842      0.00000
     12      11.4733      0.00000
     13      12.8135      0.00000
     14      15.0919      0.00000
     15      22.5108      0.00000
     16      24.5818      0.00000

 k-point   157 :       0.5000    0.1071    0.6071
  band No.  band energies     occupation 
      1     -13.6173      1.00000
      2      -9.3591      1.00000
      3      -9.0334      1.00000
      4      -8.9225      1.00000
      5      -8.8381      1.00000
      6      -7.9032      1.00000
      7      -2.6447      1.00000
      8      -0.6534      1.00000
      9      -0.5462      1.00000
     10       6.4713      0.00000
     11       9.5307      0.00000
     12      11.5023      0.00000
     13      13.1604      0.00000
     14      14.8451      0.00000
     15      23.1370      0.00000
     16      24.0626      0.00000

 k-point   158 :       0.5000    0.0893    0.5893
  band No.  band energies     occupation 
      1     -13.6170      1.00000
      2      -9.3707      1.00000
      3      -9.0053      1.00000
      4      -8.9207      1.00000
      5      -8.8316      1.00000
      6      -7.9477      1.00000
      7      -2.6612      1.00000
      8      -0.5798      1.00000
      9      -0.4986      1.00000
     10       6.2696      0.00000
     11       9.4793      0.00000
     12      11.5292      0.00000
     13      13.4931      0.00000
     14      14.6218      0.00000
     15      23.2556      0.00000
     16      23.5649      0.00000

 k-point   159 :       0.5000    0.0714    0.5714
  band No.  band energies     occupation 
      1     -13.6167      1.00000
      2      -9.3809      1.00000
      3      -8.9782      1.00000
      4      -8.9194      1.00000
      5      -8.8259      1.00000
      6      -7.9894      1.00000
      7      -2.6756      1.00000
      8      -0.5121      1.00000
      9      -0.4561      1.00000
     10       6.0956      0.00000
     11       9.4329      0.00000
     12      11.5622      0.00000
     13      13.7936      0.00000
     14      14.4545      0.00000
     15      22.5677      0.00000
     16      24.0282      0.00000

 k-point   160 :       0.5000    0.0536    0.5536
  band No.  band energies     occupation 
      1     -13.6165      1.00000
      2      -9.3892      1.00000
      3      -8.9539      1.00000
      4      -8.9184      1.00000
      5      -8.8212      1.00000
      6      -8.0259      1.00000
      7      -2.6872      1.00000
      8      -0.4542      1.00000
      9      -0.4208      1.00000
     10       5.9542      0.00000
     11       9.3939      0.00000
     12      11.5942      0.00000
     13      14.0382      0.00000
     14      14.3173      0.00000
     15      21.9166      0.00000
     16      24.2914      0.00000

 k-point   161 :       0.5000    0.0357    0.5357
  band No.  band energies     occupation 
      1     -13.6163      1.00000
      2      -9.3952      1.00000
      3      -8.9343      1.00000
      4      -8.9177      1.00000
      5      -8.8176      1.00000
      6      -8.0545      1.00000
      7      -2.6958      1.00000
      8      -0.4098      1.00000
      9      -0.3943      1.00000
     10       5.8497      0.00000
     11       9.3644      0.00000
     12      11.6240      0.00000
     13      14.2164      0.00000
     14      14.2206      0.00000
     15      21.7562      0.00000
     16      24.5646      0.00000

 k-point   162 :       0.5000    0.0179    0.5179
  band No.  band energies     occupation 
      1     -13.6161      1.00000
      2      -9.3990      1.00000
      3      -8.9216      1.00000
      4      -8.9173      1.00000
      5      -8.8155      1.00000
      6      -8.0728      1.00000
      7      -2.7010      1.00000
      8      -0.3817      1.00000
      9      -0.3778      1.00000
     10       5.7858      0.00000
     11       9.3462      0.00000
     12      11.6419      0.00000
     13      14.1815      0.00000
     14      14.3050      0.00000
     15      21.3367      0.00000
     16      24.6393      0.00000

 k-point   163 :       0.5000    0.0000    0.5000
  band No.  band energies     occupation 
      1     -13.6161      1.00000
      2      -9.4002      1.00000
      3      -8.9172      1.00000
      4      -8.9171      1.00000
      5      -8.8148      1.00000
      6      -8.0792      1.00000
      7      -2.7027      1.00000
      8      -0.3723      1.00000
      9      -0.3721      1.00000
     10       5.7646      0.00000
     11       9.3402      0.00000
     12      11.6516      0.00000
     13      14.1731      0.00000
     14      14.3248      0.00000
     15      21.4567      0.00000
     16      25.2541      0.00000


--------------------------------------------------------------------------------------------------------


 soft charge-density along one line, spin component           1
         0         1         2         3         4         5         6         7         8         9
 total charge-density along one line
 
 soft charge-density along one line, spin component           2
         0         1         2         3         4         5         6         7         8         9
 total charge-density along one line
 
 pseudopotential strength for first ion, spin component:           1
-17.595  -0.000   0.000  -0.000   0.000 -17.698  -0.000   0.000
 -0.000 -17.595  -0.000  -0.000   0.000  -0.000 -17.698  -0.000
  0.000  -0.000 -17.573  -0.000   0.000   0.000  -0.000 -17.677
 -0.000  -0.000  -0.000 -17.595  -0.000  -0.000  -0.000  -0.000
  0.000   0.000   0.000  -0.000 -17.573   0.000   0.000   0.000
-17.698  -0.000   0.000  -0.000   0.000 -17.785  -0.000   0.000
 -0.000 -17.698  -0.000  -0.000   0.000  -0.000 -17.785  -0.000
  0.000  -0.000 -17.677  -0.000   0.000   0.000  -0.000 -17.764
 -0.000  -0.000  -0.000 -17.698  -0.000  -0.000  -0.000  -0.000
  0.000   0.000   0.000  -0.000 -17.677   0.000   0.000   0.000
  0.000   0.000   0.000   0.000   0.000   0.000   0.000   0.000
  0.000   0.000   0.000   0.000   0.000   0.000   0.000   0.000
  0.000   0.000  -0.000  -0.000  -0.000   0.000   0.000  -0.000
 -0.000   0.000   0.000   0.000  -0.000  -0.000   0.000   0.000
  0.000  -0.000  -0.000   0.000   0.000   0.000  -0.000  -0.000
  0.000   0.000  -0.000   0.001  -0.000   0.000   0.000  -0.000
  0.001   0.000   0.000   0.000  -0.000   0.001   0.000   0.000
  0.000   0.001  -0.000   0.000   0.000   0.000   0.001  -0.000
 pseudopotential strength for first ion, spin component:           2
-17.516   0.000   0.000   0.000  -0.000 -17.620   0.000   0.000
  0.000 -17.516  -0.000   0.000   0.000   0.000 -17.620  -0.000
  0.000  -0.000 -17.534  -0.000   0.000   0.000  -0.000 -17.638
  0.000   0.000  -0.000 -17.516  -0.000   0.000   0.000  -0.000
 -0.000   0.000   0.000  -0.000 -17.534  -0.000   0.000   0.000
-17.620   0.000   0.000   0.000  -0.000 -17.708   0.000   0.000
  0.000 -17.620  -0.000   0.000   0.000   0.000 -17.708  -0.000
  0.000  -0.000 -17.638  -0.000   0.000   0.000  -0.000 -17.726
  0.000   0.000  -0.000 -17.620  -0.000   0.000   0.000  -0.000
 -0.000   0.000   0.000  -0.000 -17.638  -0.000   0.000   0.000
  0.000   0.000   0.000   0.000   0.000   0.000   0.000   0.000
  0.000   0.000   0.000   0.000   0.000   0.000   0.000   0.000
  0.000   0.000  -0.000  -0.006  -0.000   0.000   0.000  -0.000
 -0.006   0.000   0.000   0.000   0.000  -0.006   0.000   0.000
  0.000  -0.006  -0.000   0.000   0.000   0.000  -0.006  -0.000
  0.000   0.000  -0.000  -0.006  -0.000   0.000   0.000  -0.000
 -0.006   0.000   0.000   0.000   0.000  -0.005   0.000   0.000
  0.000  -0.006  -0.000   0.000   0.000   0.000  -0.005  -0.000
 total augmentation occupancy for first ion, spin component:           1
  2.000   0.000   0.000   0.000   0.000   0.000   0.000   0.000   0.000   0.000   0.000   0.000   0.000   0.000   0.000   0.000
  0.000   2.000   0.000   0.000   0.000   0.000   0.000   0.000   0.000   0.000   0.000   0.000   0.000   0.000   0.000   0.000
  0.000   0.000   2.000   0.000   0.000   0.000   0.000   0.000   0.000   0.000   0.000   0.000   0.000   0.000   0.000   0.000
  0.000   0.000   0.000   2.000   0.000   0.000   0.000   0.000   0.000   0.000   0.000   0.000   0.000   0.000   0.000   0.000
  0.000   0.000   0.000   0.000   2.000   0.000   0.000   0.000   0.000   0.000   0.000   0.000   0.000   0.000   0.000   0.000
  0.000   0.000   0.000   0.000   0.000   0.000   0.000   0.000   0.000   0.000   0.000   0.000   0.000   0.000   0.000   0.000
  0.000   0.000   0.000   0.000   0.000   0.000   0.000   0.000   0.000   0.000   0.000   0.000   0.000   0.000   0.000   0.000
  0.000   0.000   0.000   0.000   0.000   0.000   0.000   0.000   0.000   0.000   0.000   0.000   0.000   0.000   0.000   0.000
  0.000   0.000   0.000   0.000   0.000   0.000   0.000   0.000   0.000   0.000   0.000   0.000   0.000   0.000   0.000   0.000
  0.000   0.000   0.000   0.000   0.000   0.000   0.000   0.000   0.000   0.000   0.000   0.000   0.000   0.000   0.000   0.000
  0.000   0.000   0.000   0.000   0.000   0.000   0.000   0.000   0.000   0.000   2.000   0.000   0.000   0.000   0.000   0.000
  0.000   0.000   0.000   0.000   0.000   0.000   0.000   0.000   0.000   0.000   0.000   0.000   0.000   0.000   0.000   0.000
  0.000   0.000   0.000   0.000   0.000   0.000   0.000   0.000   0.000   0.000   0.000   0.000   0.000   0.000   0.000   0.000
  0.000   0.000   0.000   0.000   0.000   0.000   0.000   0.000   0.000   0.000   0.000   0.000   0.000   0.000   0.000   0.000
  0.000   0.000   0.000   0.000   0.000   0.000   0.000   0.000   0.000   0.000   0.000   0.000   0.000   0.000   0.000   0.000
  0.000   0.000   0.000   0.000   0.000   0.000   0.000   0.000   0.000   0.000   0.000   0.000   0.000   0.000   0.000   0.000
  0.000   0.000   0.000   0.000   0.000   0.000   0.000   0.000   0.000   0.000   0.000   0.000   0.000   0.000   0.000   0.000
  0.000   0.000   0.000   0.000   0.000   0.000   0.000   0.000   0.000   0.000   0.000   0.000   0.000   0.000   0.000   0.000
 total augmentation occupancy for first ion, spin component:           2
  0.167   0.000   0.000   0.000   0.000   0.000   0.000   0.000   0.000   0.000   0.000   0.000   0.000   0.000   0.000   0.000
  0.000   0.167   0.000   0.000   0.000   0.000   0.000   0.000   0.000   0.000   0.000   0.000   0.000   0.000   0.000   0.000
  0.000   0.000   0.167   0.000   0.000   0.000   0.000   0.000   0.000   0.000   0.000   0.000   0.000   0.000   0.000   0.000
  0.000   0.000   0.000   0.167   0.000   0.000   0.000   0.000   0.000   0.000   0.000   0.000   0.000   0.000   0.000   0.000
  0.000   0.000   0.000   0.000   0.167   0.000   0.000   0.000   0.000   0.000   0.000   0.000   0.000   0.000   0.000   0.000
  0.000   0.000   0.000   0.000   0.000   0.000   0.000   0.000   0.000   0.000   0.000   0.000   0.000   0.000   0.000   0.000
  0.000   0.000   0.000   0.000   0.000   0.000   0.000   0.000   0.000   0.000   0.000   0.000   0.000   0.000   0.000   0.000
  0.000   0.000   0.000   0.000   0.000   0.000   0.000   0.000   0.000   0.000   0.000   0.000   0.000   0.000   0.000   0.000
  0.000   0.000   0.000   0.000   0.000   0.000   0.000   0.000   0.000   0.000   0.000   0.000   0.000   0.000   0.000   0.000
  0.000   0.000   0.000   0.000   0.000   0.000   0.000   0.000   0.000   0.000   0.000   0.000   0.000   0.000   0.000   0.000
  0.000   0.000   0.000   0.000   0.000   0.000   0.000   0.000   0.000   0.000   0.167   0.000   0.000   0.000   0.000   0.000
  0.000   0.000   0.000   0.000   0.000   0.000   0.000   0.000   0.000   0.000   0.000   0.000   0.000   0.000   0.000   0.000
  0.000   0.000   0.000   0.000   0.000   0.000   0.000   0.000   0.000   0.000   0.000   0.000   0.000   0.000   0.000   0.000
  0.000   0.000   0.000   0.000   0.000   0.000   0.000   0.000   0.000   0.000   0.000   0.000   0.000   0.000   0.000   0.000
  0.000   0.000   0.000   0.000   0.000   0.000   0.000   0.000   0.000   0.000   0.000   0.000   0.000   0.000   0.000   0.000
  0.000   0.000   0.000   0.000   0.000   0.000   0.000   0.000   0.000   0.000   0.000   0.000   0.000   0.000   0.000   0.000
  0.000   0.000   0.000   0.000   0.000   0.000   0.000   0.000   0.000   0.000   0.000   0.000   0.000   0.000   0.000   0.000
  0.000   0.000   0.000   0.000   0.000   0.000   0.000   0.000   0.000   0.000   0.000   0.000   0.000   0.000   0.000   0.000


------------------------ aborting loop because EDIFF is reached ----------------------------------------


 


 total charge     
 
# of ion       s       p       d       tot
------------------------------------------
    1        0.419   0.333   9.691  10.442
    2        1.283   2.222   0.000   3.505
--------------------------------------------------
tot          1.702   2.555   9.691  13.947
 


 magnetization (x)
 
# of ion       s       p       d       tot
------------------------------------------
    1       -0.041   0.022   0.077   0.058
    2        0.016   0.694   0.000   0.710
--------------------------------------------------
tot         -0.025   0.717   0.077   0.768
 
    CHARGE:  cpu time    0.1053: real time    0.3475
    FORLOC:  cpu time    0.0003: real time    0.0003
    FORHF :  cpu time  558.0375: real time  558.0766
    FORNL :  cpu time    0.0993: real time    0.0993
    FORCOR:  cpu time    0.1324: real time    0.1330
    FORHAR:  cpu time    0.0018: real time    0.0018
    OFIELD:  cpu time    0.0004: real time    0.0004

 VOLUME and BASIS-vectors are now :
 -----------------------------------------------------------------------------
  energy-cutoff  :      520.00
  volume of cell :       34.03
      direct lattice vectors                 reciprocal lattice vectors
     0.000000000  2.571980736  2.571980736    -0.194402700  0.194402700  0.194402700
     2.571980736  0.000000000  2.571980736     0.194402700 -0.194402700  0.194402700
     2.571980736  2.571980736  0.000000000     0.194402700  0.194402700 -0.194402700

  length of vectors
     3.637330039  3.637330039  3.637330039     0.336715354  0.336715354  0.336715354


 FORCES acting on ions
    electron-ion (+dipol)            ewald-force                    non-local-force                 convergence-correction
 -----------------------------------------------------------------------------------------------
   0.254E-05 -.148E-05 0.200E-06   0.323E-13 0.196E-13 0.239E-13   -.486E-16 -.555E-16 -.434E-16   -.181E-05 0.123E-05 -.518E-07
   -.268E-06 0.318E-06 0.393E-07   -.330E-13 -.213E-13 -.238E-13   -.347E-17 -.173E-17 -.867E-18   0.134E-06 -.123E-06 0.656E-08
 -----------------------------------------------------------------------------------------------
   0.227E-05 -.116E-05 0.239E-06   -.710E-15 -.161E-14 0.118E-15   -.520E-16 -.572E-16 -.442E-16   -.168E-05 0.111E-05 -.452E-07
 
 
 POSITION                                       TOTAL-FORCE (eV/Angst)
 -----------------------------------------------------------------------------------
      0.00000      0.00000      0.00000         0.000000      0.000000      0.000000
      1.28599      1.28599      1.28599        -0.000000     -0.000000     -0.000000
 -----------------------------------------------------------------------------------
    total drift:                                0.000001     -0.000000      0.000000


--------------------------------------------------------------------------------------------------------



  FREE ENERGIE OF THE ION-ELECTRON SYSTEM (eV)
  ---------------------------------------------------
  free  energy   TOTEN  =        -8.25849496 eV

  energy  without entropy=       -8.25692837  energy(sigma->0) =       -8.25771166
 


--------------------------------------------------------------------------------------------------------


    POTLOK:  cpu time    0.1264: real time    0.1266


--------------------------------------------------------------------------------------------------------


     LOOP+:  cpu time 5428.9127: real time 5429.9268
    4ORBIT:  cpu time    0.0000: real time    0.0000
 


 total charge     
 
# of ion       s       p       d       tot
------------------------------------------
    1        0.419   0.333   9.691  10.442
    2        1.283   2.222   0.000   3.505
--------------------------------------------------
tot          1.702   2.555   9.691  13.947
 


 magnetization (x)
 
# of ion       s       p       d       tot
------------------------------------------
    1       -0.041   0.022   0.077   0.058
    2        0.016   0.694   0.000   0.710
--------------------------------------------------
tot         -0.025   0.717   0.077   0.768
 

 total amount of memory used by VASP MPI-rank0    43378. kBytes
=======================================================================

   base      :      30000. kBytes
   nonl-proj :       6388. kBytes
   fftplans  :        658. kBytes
   grid      :        512. kBytes
   one-center:         31. kBytes
   HF        :         64. kBytes
   nonlr-proj:        718. kBytes
   wavefun   :       5007. kBytes
 
  
  
 General timing and accounting informations for this job:
 ========================================================
  
                  Total CPU time used (sec):     5477.005
                            User time (sec):     5474.805
                          System time (sec):        2.200
                         Elapsed time (sec):     5482.688
  
                   Maximum memory used (kb):      245908.
                   Average memory used (kb):           0.
  
                          Minor page faults:       238458
                          Major page faults:         2637
                 Voluntary context switches:         4208
