 vasp.5.4.1 24Jun15 (build Nov 23 2015 09:58:10) complex                        
  
 executed on             LinuxIFC date 2022.11.04  16:57:02
 running on   48 total cores
 distrk:  each k-point on   48 cores,    1 groups
 distr:  one band on NCORES_PER_BAND=   8 cores,    6 groups


--------------------------------------------------------------------------------------------------------


 INCAR:
 POTCAR:    PAW_PBE H 15Jun2001                   
 POTCAR:    PAW_PBE Sr_sv 07Sep2000               
 POTCAR:    PAW_PBE H 15Jun2001                   
   VRHFIN =H: ultrasoft test                                                    
   LEXCH  = PE                                                                  
   EATOM  =    12.4884 eV,    0.9179 Ry                                         
                                                                                
   TITEL  = PAW_PBE H 15Jun2001                                                 
   LULTRA =        F    use ultrasoft PP ?                                      
   IUNSCR =        0    unscreen: 0-lin 1-nonlin 2-no                           
   RPACOR =    0.000    partial core radius                                     
   POMASS =    1.000; ZVAL   =    1.000    mass and valenz                      
   RCORE  =    1.100    outmost cutoff radius                                   
   RWIGS  =    0.700; RWIGS  =    0.370    wigner-seitz radius (au A)           
   ENMAX  =  250.000; ENMIN  =  200.000 eV                                      
   RCLOC  =    0.701    cutoff for local pot                                    
   LCOR   =        T    correct aug charges                                     
   LPAW   =        T    paw PP                                                  
   EAUG   =  400.000                                                            
   RMAX   =    1.123    core radius for proj-oper                               
   RAUG   =    1.200    factor for augmentation sphere                          
   RDEP   =    1.112    radius for radial grids                                 
   RDEPT  =    0.926    core radius for aug-charge                              
                                                                                
   Atomic configuration                                                         
    2 entries                                                                   
     n  l   j            E        occ.                                          
     1  0  0.50        -6.4927   1.0000                                         
     2  1  0.50        -3.4015   0.0000                                         
   Description                                                                  
     l       E           TYP  RCUT    TYP  RCUT                                 
     0     -6.4927494     23  1.100                                             
     0      6.8029130     23  1.100                                             
     1     -4.0817478     23  1.100                                             
  local pseudopotential read in
  atomic valenz-charges read in
  non local Contribution for L=           0  read in
    real space projection operators read in
  non local Contribution for L=           0  read in
    real space projection operators read in
  non local Contribution for L=           1  read in
    real space projection operators read in
    PAW grid and wavefunctions read in
 
   number of l-projection  operators is LMAX  =           3
   number of lm-projection operators is LMMAX =           5
 
 POTCAR:    PAW_PBE Sr_sv 07Sep2000               
   VRHFIN =Sr: 4s4p5s                                                           
   LEXCH  = PE                                                                  
   EATOM  =   843.0319 eV,   61.9611 Ry                                         
                                                                                
   TITEL  = PAW_PBE Sr_sv 07Sep2000                                             
   LULTRA =        F    use ultrasoft PP ?                                      
   IUNSCR =        1    unscreen: 0-lin 1-nonlin 2-no                           
   RPACOR =    2.200    partial core radius                                     
   POMASS =   87.620; ZVAL   =   10.000    mass and valenz                      
   RCORE  =    2.500    outmost cutoff radius                                   
   RWIGS  =    4.040; RWIGS  =    2.138    wigner-seitz radius (au A)           
   ENMAX  =  229.353; ENMIN  =  172.014 eV                                      
   RCLOC  =    2.201    cutoff for local pot                                    
   LCOR   =        T    correct aug charges                                     
   LPAW   =        T    paw PP                                                  
   EAUG   =  366.804                                                            
   DEXC   =    0.000                                                            
   RMAX   =    2.547    core radius for proj-oper                               
   RAUG   =    1.300    factor for augmentation sphere                          
   RDEP   =    2.562    radius for radial grids                                 
   RDEPT  =    2.128    core radius for aug-charge                              
                                                                                
   Atomic configuration                                                         
   10 entries                                                                   
     n  l   j            E        occ.                                          
     1  0  0.50    -15934.8930   2.0000                                         
     2  0  0.50     -2157.6250   2.0000                                         
     2  1  1.50     -1917.0034   6.0000                                         
     3  0  0.50      -333.7288   2.0000                                         
     3  1  1.50      -256.0992   6.0000                                         
     3  2  2.50      -127.9971  10.0000                                         
     4  0  0.50       -40.8953   2.0000                                         
     5  0  0.50        -3.5257   1.9990                                         
     4  1  1.50       -22.8179   6.0000                                         
     4  2  1.50        -1.2815   0.0010                                         
   Description                                                                  
     l       E           TYP  RCUT    TYP  RCUT                                 
     0    -40.8953213     23  2.480                                             
     0     -3.5257161     23  2.480                                             
     1    -22.8178632     23  2.500                                             
     1    -24.1784458     23  2.500                                             
     2     -1.2814598     23  2.500                                             
     2      0.2279365     23  2.500                                             
  local pseudopotential read in
  partial core-charges read in
  partial kinetic energy density read in
  atomic valenz-charges read in
  non local Contribution for L=           0  read in
    real space projection operators read in
  non local Contribution for L=           0  read in
    real space projection operators read in
  non local Contribution for L=           1  read in
    real space projection operators read in
  non local Contribution for L=           1  read in
    real space projection operators read in
  non local Contribution for L=           2  read in
    real space projection operators read in
  non local Contribution for L=           2  read in
    real space projection operators read in
    PAW grid and wavefunctions read in
 
   number of l-projection  operators is LMAX  =           6
   number of lm-projection operators is LMMAX =          18
 
  PAW_PBE H 15Jun2001                   :
 energy of atom  1       EATOM=  -12.4884
 kinetic energy error for atom=    0.0014 (will be added to EATOM!!)
  PAW_PBE Sr_sv 07Sep2000               :
 energy of atom  2       EATOM= -843.0319
 kinetic energy error for atom=    0.0010 (will be added to EATOM!!)
 
 
 POSCAR: Primitive Cell                          
  positions in direct lattice
  No initial velocities read in
 exchange correlation table for  LEXCH =        8
   RHO(1)=    0.500       N(1)  =     2000
   RHO(2)=  100.500       N(2)  =     4000
 


--------------------------------------------------------------------------------------------------------


 ion  position               nearest neighbor table
   1  0.833  0.167  0.250-   5 2.38   5 2.38   5 2.38   6 2.86   6 2.86
   2  0.167  0.833  0.750-   6 2.38   6 2.38   6 2.38   5 2.86   5 2.86
   3  0.500  0.500  0.000-   5 2.77   6 2.77   5 2.77   6 2.77   5 2.78   6 2.78
   4  0.500  0.500  0.500-   5 2.77   6 2.77   5 2.77   6 2.77   5 2.78   6 2.78
   5  0.167  0.833  0.250-   1 2.38   1 2.38   1 2.38   3 2.77   4 2.77   3 2.77   4 2.77   4 2.78
                             3 2.78   2 2.86   2 2.86   6 3.72   6 3.72   6 3.72   6 3.72   6 3.72
   6  0.833  0.167  0.750-   2 2.38   2 2.38   2 2.38   4 2.77   3 2.77   4 2.77   3 2.77   4 2.78
                             3 2.78   1 2.86   1 2.86   5 3.72   5 3.72   5 3.72   5 3.72   5 3.72
 
  LATTYP: Found a base centered orthorhombic cell.
 ALAT       =     4.1186211356
 B/A-ratio  =     1.7320993179
 C/A-ratio  =     1.3891746611
  
  Lattice vectors:
  
 A1 = (   2.0593105678,  -3.5669304299,   0.0000000000)
 A2 = (   2.0593105678,   3.5669304299,   0.0000000000)
 A3 = (   0.0000000000,   0.0000000000,   5.7214841201)


Analysis of symmetry for initial positions (statically):
=====================================================================
 Subroutine PRICEL returns:
 Original cell was already a primitive cell.
 

 Routine SETGRP: Setting up the symmetry group for a 
 base centered orthorhombic supercell.


 Subroutine GETGRP returns: Found  8 space group operations
 (whereof  4 operations were pure point group operations)
 out of a pool of  8 trial point group operations.


The static configuration has the point symmetry C_2h.
 The point group associated with its full space group is D_2h.


Analysis of symmetry for dynamics (positions and initial velocities):
=====================================================================
 Subroutine PRICEL returns:
 Original cell was already a primitive cell.
 

 Routine SETGRP: Setting up the symmetry group for a 
 base centered orthorhombic supercell.


 Subroutine GETGRP returns: Found  8 space group operations
 (whereof  4 operations were pure point group operations)
 out of a pool of  8 trial point group operations.


The dynamic configuration has the point symmetry C_2h.
 The point group associated with its full space group is D_2h.
 
 
 KPOINTS: 0.030  12  12   6  172  0.040  201   11 
  k-points in reciprocal lattice
Space group operators:
 irot       det(A)        alpha          n_x          n_y          n_z        tau_x        tau_y        tau_z
    1     1.000000     0.000000     1.000000     0.000000     0.000000     0.000000     0.000000     0.000000
    2    -1.000000     0.000000     1.000000     0.000000     0.000000     0.000000     0.000000     0.000000
    3     1.000000   180.000000     1.000000     0.000000     0.000000     0.000000     0.000000     0.000000
    4    -1.000000   180.000000     1.000000     0.000000     0.000000     0.000000     0.000000     0.000000
    5     1.000000   180.000000     0.000000     0.000000     1.000000     0.000000     0.000000     0.500000
    6    -1.000000   180.000000     0.000000     0.000000     1.000000     0.000000     0.000000     0.500000
    7     1.000000   180.000000     0.000000     1.000000     0.000000     0.000000     0.000000     0.500000
    8    -1.000000   180.000000     0.000000     1.000000     0.000000     0.000000     0.000000     0.500000

 ----------------------------------------------------------------------------- 
|                                                                             |
|           W    W    AA    RRRRR   N    N  II  N    N   GGGG   !!!           |
|           W    W   A  A   R    R  NN   N  II  NN   N  G    G  !!!           |
|           W    W  A    A  R    R  N N  N  II  N N  N  G       !!!           |
|           W WW W  AAAAAA  RRRRR   N  N N  II  N  N N  G  GGG   !            |
|           WW  WW  A    A  R   R   N   NN  II  N   NN  G    G                |
|           W    W  A    A  R    R  N    N  II  N    N   GGGG   !!!           |
|                                                                             |
|      Your generating k-point grid is not commensurate to the symmetry       |
|      of the lattice.  This can cause   slow convergence with respect        |
|      to k-points for HF type calculations                                   |
|      suggested SOLUTIONS:                                                   |
|       ) if not already the case, use automatic k-point generation           |
|       ) shift your grid to Gamma (G) (e.g. required for hex or fcc lattice) |
|                                                                             |
 ----------------------------------------------------------------------------- 

 
 Subroutine IBZKPT_HF returns following result:
 ==============================================
 
 Found   1065 k-points in 1st BZ
 the following   1065 k-points will be used (e.g. in the exchange kernel)
 Following reciprocal coordinates:   # in IRBZ
  0.000000  0.000000  0.000000    0.00115741   1 t-inv F
  0.083333  0.000000  0.000000    0.00115741   2 t-inv F
  0.166667  0.000000  0.000000    0.00115741   3 t-inv F
  0.250000  0.000000  0.000000    0.00115741   4 t-inv F
  0.333333  0.000000  0.000000    0.00115741   5 t-inv F
  0.416667  0.000000  0.000000    0.00115741   6 t-inv F
  0.500000  0.000000  0.000000    0.00115741   7 t-inv F
  0.083333  0.083333  0.000000    0.00115741   8 t-inv F
  0.166667  0.083333  0.000000    0.00115741   9 t-inv F
  0.250000  0.083333  0.000000    0.00115741  10 t-inv F
  0.333333  0.083333  0.000000    0.00115741  11 t-inv F
  0.416667  0.083333  0.000000    0.00115741  12 t-inv F
  0.500000  0.083333  0.000000    0.00115741  13 t-inv F
 -0.416667  0.083333  0.000000    0.00115741  14 t-inv F
 -0.333333  0.083333  0.000000    0.00115741  15 t-inv F
 -0.250000  0.083333  0.000000    0.00115741  16 t-inv F
 -0.166667  0.083333  0.000000    0.00115741  17 t-inv F
 -0.083333  0.083333  0.000000    0.00115741  18 t-inv F
  0.166667  0.166667  0.000000    0.00115741  19 t-inv F
  0.250000  0.166667  0.000000    0.00115741  20 t-inv F
  0.333333  0.166667  0.000000    0.00115741  21 t-inv F
  0.416667  0.166667  0.000000    0.00115741  22 t-inv F
  0.500000  0.166667  0.000000    0.00115741  23 t-inv F
 -0.416667  0.166667  0.000000    0.00115741  24 t-inv F
 -0.333333  0.166667  0.000000    0.00115741  25 t-inv F
 -0.250000  0.166667  0.000000    0.00115741  26 t-inv F
 -0.166667  0.166667  0.000000    0.00115741  27 t-inv F
  0.250000  0.250000  0.000000    0.00115741  28 t-inv F
  0.333333  0.250000  0.000000    0.00115741  29 t-inv F
  0.416667  0.250000  0.000000    0.00115741  30 t-inv F
  0.500000  0.250000  0.000000    0.00115741  31 t-inv F
 -0.416667  0.250000  0.000000    0.00115741  32 t-inv F
 -0.333333  0.250000  0.000000    0.00115741  33 t-inv F
 -0.250000  0.250000  0.000000    0.00115741  34 t-inv F
  0.333333  0.333333  0.000000    0.00115741  35 t-inv F
  0.416667  0.333333  0.000000    0.00115741  36 t-inv F
  0.500000  0.333333  0.000000    0.00115741  37 t-inv F
 -0.416667  0.333333  0.000000    0.00115741  38 t-inv F
 -0.333333  0.333333  0.000000    0.00115741  39 t-inv F
  0.416667  0.416667  0.000000    0.00115741  40 t-inv F
  0.500000  0.416667  0.000000    0.00115741  41 t-inv F
 -0.416667  0.416667  0.000000    0.00115741  42 t-inv F
  0.500000  0.500000  0.000000    0.00115741  43 t-inv F
  0.000000  0.000000  0.166667    0.00115741  44 t-inv F
  0.083333  0.000000  0.166667    0.00115741  45 t-inv F
  0.166667  0.000000  0.166667    0.00115741  46 t-inv F
  0.250000  0.000000  0.166667    0.00115741  47 t-inv F
  0.333333  0.000000  0.166667    0.00115741  48 t-inv F
  0.416667  0.000000  0.166667    0.00115741  49 t-inv F
  0.500000  0.000000  0.166667    0.00115741  50 t-inv F
  0.083333  0.083333  0.166667    0.00115741  51 t-inv F
  0.166667  0.083333  0.166667    0.00115741  52 t-inv F
  0.250000  0.083333  0.166667    0.00115741  53 t-inv F
  0.333333  0.083333  0.166667    0.00115741  54 t-inv F
  0.416667  0.083333  0.166667    0.00115741  55 t-inv F
  0.500000  0.083333  0.166667    0.00115741  56 t-inv F
 -0.416667  0.083333  0.166667    0.00115741  57 t-inv F
 -0.333333  0.083333  0.166667    0.00115741  58 t-inv F
 -0.250000  0.083333  0.166667    0.00115741  59 t-inv F
 -0.166667  0.083333  0.166667    0.00115741  60 t-inv F
 -0.083333  0.083333  0.166667    0.00115741  61 t-inv F
  0.166667  0.166667  0.166667    0.00115741  62 t-inv F
  0.250000  0.166667  0.166667    0.00115741  63 t-inv F
  0.333333  0.166667  0.166667    0.00115741  64 t-inv F
  0.416667  0.166667  0.166667    0.00115741  65 t-inv F
  0.500000  0.166667  0.166667    0.00115741  66 t-inv F
 -0.416667  0.166667  0.166667    0.00115741  67 t-inv F
 -0.333333  0.166667  0.166667    0.00115741  68 t-inv F
 -0.250000  0.166667  0.166667    0.00115741  69 t-inv F
 -0.166667  0.166667  0.166667    0.00115741  70 t-inv F
  0.250000  0.250000  0.166667    0.00115741  71 t-inv F
  0.333333  0.250000  0.166667    0.00115741  72 t-inv F
  0.416667  0.250000  0.166667    0.00115741  73 t-inv F
  0.500000  0.250000  0.166667    0.00115741  74 t-inv F
 -0.416667  0.250000  0.166667    0.00115741  75 t-inv F
 -0.333333  0.250000  0.166667    0.00115741  76 t-inv F
 -0.250000  0.250000  0.166667    0.00115741  77 t-inv F
  0.333333  0.333333  0.166667    0.00115741  78 t-inv F
  0.416667  0.333333  0.166667    0.00115741  79 t-inv F
  0.500000  0.333333  0.166667    0.00115741  80 t-inv F
 -0.416667  0.333333  0.166667    0.00115741  81 t-inv F
 -0.333333  0.333333  0.166667    0.00115741  82 t-inv F
  0.416667  0.416667  0.166667    0.00115741  83 t-inv F
  0.500000  0.416667  0.166667    0.00115741  84 t-inv F
 -0.416667  0.416667  0.166667    0.00115741  85 t-inv F
  0.500000  0.500000  0.166667    0.00115741  86 t-inv F
  0.000000  0.000000  0.333333    0.00115741  87 t-inv F
  0.083333  0.000000  0.333333    0.00115741  88 t-inv F
  0.166667  0.000000  0.333333    0.00115741  89 t-inv F
  0.250000  0.000000  0.333333    0.00115741  90 t-inv F
  0.333333  0.000000  0.333333    0.00115741  91 t-inv F
  0.416667  0.000000  0.333333    0.00115741  92 t-inv F
  0.500000  0.000000  0.333333    0.00115741  93 t-inv F
  0.083333  0.083333  0.333333    0.00115741  94 t-inv F
  0.166667  0.083333  0.333333    0.00115741  95 t-inv F
  0.250000  0.083333  0.333333    0.00115741  96 t-inv F
  0.333333  0.083333  0.333333    0.00115741  97 t-inv F
  0.416667  0.083333  0.333333    0.00115741  98 t-inv F
  0.500000  0.083333  0.333333    0.00115741  99 t-inv F
 -0.416667  0.083333  0.333333    0.00115741 100 t-inv F
 -0.333333  0.083333  0.333333    0.00115741 101 t-inv F
 -0.250000  0.083333  0.333333    0.00115741 102 t-inv F
 -0.166667  0.083333  0.333333    0.00115741 103 t-inv F
 -0.083333  0.083333  0.333333    0.00115741 104 t-inv F
  0.166667  0.166667  0.333333    0.00115741 105 t-inv F
  0.250000  0.166667  0.333333    0.00115741 106 t-inv F
  0.333333  0.166667  0.333333    0.00115741 107 t-inv F
  0.416667  0.166667  0.333333    0.00115741 108 t-inv F
  0.500000  0.166667  0.333333    0.00115741 109 t-inv F
 -0.416667  0.166667  0.333333    0.00115741 110 t-inv F
 -0.333333  0.166667  0.333333    0.00115741 111 t-inv F
 -0.250000  0.166667  0.333333    0.00115741 112 t-inv F
 -0.166667  0.166667  0.333333    0.00115741 113 t-inv F
  0.250000  0.250000  0.333333    0.00115741 114 t-inv F
  0.333333  0.250000  0.333333    0.00115741 115 t-inv F
  0.416667  0.250000  0.333333    0.00115741 116 t-inv F
  0.500000  0.250000  0.333333    0.00115741 117 t-inv F
 -0.416667  0.250000  0.333333    0.00115741 118 t-inv F
 -0.333333  0.250000  0.333333    0.00115741 119 t-inv F
 -0.250000  0.250000  0.333333    0.00115741 120 t-inv F
  0.333333  0.333333  0.333333    0.00115741 121 t-inv F
  0.416667  0.333333  0.333333    0.00115741 122 t-inv F
  0.500000  0.333333  0.333333    0.00115741 123 t-inv F
 -0.416667  0.333333  0.333333    0.00115741 124 t-inv F
 -0.333333  0.333333  0.333333    0.00115741 125 t-inv F
  0.416667  0.416667  0.333333    0.00115741 126 t-inv F
  0.500000  0.416667  0.333333    0.00115741 127 t-inv F
 -0.416667  0.416667  0.333333    0.00115741 128 t-inv F
  0.500000  0.500000  0.333333    0.00115741 129 t-inv F
  0.000000  0.000000  0.500000    0.00115741 130 t-inv F
  0.083333  0.000000  0.500000    0.00115741 131 t-inv F
  0.166667  0.000000  0.500000    0.00115741 132 t-inv F
  0.250000  0.000000  0.500000    0.00115741 133 t-inv F
  0.333333  0.000000  0.500000    0.00115741 134 t-inv F
  0.416667  0.000000  0.500000    0.00115741 135 t-inv F
  0.500000  0.000000  0.500000    0.00115741 136 t-inv F
  0.083333  0.083333  0.500000    0.00115741 137 t-inv F
  0.166667  0.083333  0.500000    0.00115741 138 t-inv F
  0.250000  0.083333  0.500000    0.00115741 139 t-inv F
  0.333333  0.083333  0.500000    0.00115741 140 t-inv F
  0.416667  0.083333  0.500000    0.00115741 141 t-inv F
  0.500000  0.083333  0.500000    0.00115741 142 t-inv F
 -0.416667  0.083333  0.500000    0.00115741 143 t-inv F
 -0.333333  0.083333  0.500000    0.00115741 144 t-inv F
 -0.250000  0.083333  0.500000    0.00115741 145 t-inv F
 -0.166667  0.083333  0.500000    0.00115741 146 t-inv F
 -0.083333  0.083333  0.500000    0.00115741 147 t-inv F
  0.166667  0.166667  0.500000    0.00115741 148 t-inv F
  0.250000  0.166667  0.500000    0.00115741 149 t-inv F
  0.333333  0.166667  0.500000    0.00115741 150 t-inv F
  0.416667  0.166667  0.500000    0.00115741 151 t-inv F
  0.500000  0.166667  0.500000    0.00115741 152 t-inv F
 -0.416667  0.166667  0.500000    0.00115741 153 t-inv F
 -0.333333  0.166667  0.500000    0.00115741 154 t-inv F
 -0.250000  0.166667  0.500000    0.00115741 155 t-inv F
 -0.166667  0.166667  0.500000    0.00115741 156 t-inv F
  0.250000  0.250000  0.500000    0.00115741 157 t-inv F
  0.333333  0.250000  0.500000    0.00115741 158 t-inv F
  0.416667  0.250000  0.500000    0.00115741 159 t-inv F
  0.500000  0.250000  0.500000    0.00115741 160 t-inv F
 -0.416667  0.250000  0.500000    0.00115741 161 t-inv F
 -0.333333  0.250000  0.500000    0.00115741 162 t-inv F
 -0.250000  0.250000  0.500000    0.00115741 163 t-inv F
  0.333333  0.333333  0.500000    0.00115741 164 t-inv F
  0.416667  0.333333  0.500000    0.00115741 165 t-inv F
  0.500000  0.333333  0.500000    0.00115741 166 t-inv F
 -0.416667  0.333333  0.500000    0.00115741 167 t-inv F
 -0.333333  0.333333  0.500000    0.00115741 168 t-inv F
  0.416667  0.416667  0.500000    0.00115741 169 t-inv F
  0.500000  0.416667  0.500000    0.00115741 170 t-inv F
 -0.416667  0.416667  0.500000    0.00115741 171 t-inv F
  0.500000  0.500000  0.500000    0.00115741 172 t-inv F
  0.000000  0.000000  0.000000    0.00000000 173 t-inv F
 -0.023810  0.023810  0.000000    0.00000000 174 t-inv F
 -0.047619  0.047619  0.000000    0.00000000 175 t-inv F
 -0.071429  0.071429  0.000000    0.00000000 176 t-inv F
 -0.095238  0.095238  0.000000    0.00000000 177 t-inv F
 -0.119048  0.119048  0.000000    0.00000000 178 t-inv F
 -0.142857  0.142857  0.000000    0.00000000 179 t-inv F
 -0.166667  0.166667  0.000000    0.00000000 180 t-inv F
 -0.190476  0.190476  0.000000    0.00000000 181 t-inv F
 -0.214286  0.214286  0.000000    0.00000000 182 t-inv F
 -0.238095  0.238095  0.000000    0.00000000 183 t-inv F
 -0.261905  0.261905  0.000000    0.00000000 184 t-inv F
 -0.285714  0.285714  0.000000    0.00000000 185 t-inv F
 -0.309524  0.309524  0.000000    0.00000000 186 t-inv F
 -0.333333  0.333333  0.000000    0.00000000 187 t-inv F
 -0.357143  0.357143  0.000000    0.00000000 188 t-inv F
 -0.380952  0.380952  0.000000    0.00000000 189 t-inv F
 -0.404762  0.404762  0.000000    0.00000000 190 t-inv F
 -0.428571  0.428571  0.000000    0.00000000 191 t-inv F
 -0.452381  0.452381  0.000000    0.00000000 192 t-inv F
 -0.476190  0.476190  0.000000    0.00000000 193 t-inv F
 -0.500000  0.500000  0.000000    0.00000000 194 t-inv F
 -0.500000  0.500000  0.000000    0.00000000 195 t-inv F
 -0.484848  0.515152  0.000000    0.00000000 196 t-inv F
 -0.469696  0.530304  0.000000    0.00000000 197 t-inv F
 -0.454544  0.545456  0.000000    0.00000000 198 t-inv F
 -0.439392  0.560608  0.000000    0.00000000 199 t-inv F
 -0.424240  0.575760  0.000000    0.00000000 200 t-inv F
 -0.409088  0.590912  0.000000    0.00000000 201 t-inv F
 -0.393936  0.606064  0.000000    0.00000000 202 t-inv F
 -0.378784  0.621216  0.000000    0.00000000 203 t-inv F
 -0.363633  0.636367  0.000000    0.00000000 204 t-inv F
 -0.348481  0.651519  0.000000    0.00000000 205 t-inv F
 -0.333329  0.666671  0.000000    0.00000000 206 t-inv F
  0.333329  0.333329  0.000000    0.00000000 207 t-inv F
  0.319440  0.319440  0.000000    0.00000000 208 t-inv F
  0.305551  0.305551  0.000000    0.00000000 209 t-inv F
  0.291663  0.291663  0.000000    0.00000000 210 t-inv F
  0.277774  0.277774  0.000000    0.00000000 211 t-inv F
  0.263885  0.263885  0.000000    0.00000000 212 t-inv F
  0.249996  0.249996  0.000000    0.00000000 213 t-inv F
  0.236108  0.236108  0.000000    0.00000000 214 t-inv F
  0.222219  0.222219  0.000000    0.00000000 215 t-inv F
  0.208330  0.208330  0.000000    0.00000000 216 t-inv F
  0.194442  0.194442  0.000000    0.00000000 217 t-inv F
  0.180553  0.180553  0.000000    0.00000000 218 t-inv F
  0.166664  0.166664  0.000000    0.00000000 219 t-inv F
  0.152776  0.152776  0.000000    0.00000000 220 t-inv F
  0.138887  0.138887  0.000000    0.00000000 221 t-inv F
  0.124998  0.124998  0.000000    0.00000000 222 t-inv F
  0.111110  0.111110  0.000000    0.00000000 223 t-inv F
  0.097221  0.097221  0.000000    0.00000000 224 t-inv F
  0.083332  0.083332  0.000000    0.00000000 225 t-inv F
  0.069443  0.069443  0.000000    0.00000000 226 t-inv F
  0.055555  0.055555  0.000000    0.00000000 227 t-inv F
  0.041666  0.041666  0.000000    0.00000000 228 t-inv F
  0.027777  0.027777  0.000000    0.00000000 229 t-inv F
  0.013889  0.013889  0.000000    0.00000000 230 t-inv F
  0.000000  0.000000  0.000000    0.00000000 231 t-inv F
  0.000000  0.000000  0.000000    0.00000000 232 t-inv F
  0.000000  0.000000  0.041667    0.00000000 233 t-inv F
  0.000000  0.000000  0.083333    0.00000000 234 t-inv F
  0.000000  0.000000  0.125000    0.00000000 235 t-inv F
  0.000000  0.000000  0.166667    0.00000000 236 t-inv F
  0.000000  0.000000  0.208333    0.00000000 237 t-inv F
  0.000000  0.000000  0.250000    0.00000000 238 t-inv F
  0.000000  0.000000  0.291667    0.00000000 239 t-inv F
  0.000000  0.000000  0.333333    0.00000000 240 t-inv F
  0.000000  0.000000  0.375000    0.00000000 241 t-inv F
  0.000000  0.000000  0.416667    0.00000000 242 t-inv F
  0.000000  0.000000  0.458333    0.00000000 243 t-inv F
  0.000000  0.000000  0.500000    0.00000000 244 t-inv F
  0.000000  0.000000  0.500000    0.00000000 245 t-inv F
  0.013889  0.013889  0.500000    0.00000000 246 t-inv F
  0.027777  0.027777  0.500000    0.00000000 247 t-inv F
  0.041666  0.041666  0.500000    0.00000000 248 t-inv F
  0.055555  0.055555  0.500000    0.00000000 249 t-inv F
  0.069443  0.069443  0.500000    0.00000000 250 t-inv F
  0.083332  0.083332  0.500000    0.00000000 251 t-inv F
  0.097221  0.097221  0.500000    0.00000000 252 t-inv F
  0.111110  0.111110  0.500000    0.00000000 253 t-inv F
  0.124998  0.124998  0.500000    0.00000000 254 t-inv F
  0.138887  0.138887  0.500000    0.00000000 255 t-inv F
  0.152776  0.152776  0.500000    0.00000000 256 t-inv F
  0.166664  0.166664  0.500000    0.00000000 257 t-inv F
  0.180553  0.180553  0.500000    0.00000000 258 t-inv F
  0.194442  0.194442  0.500000    0.00000000 259 t-inv F
  0.208330  0.208330  0.500000    0.00000000 260 t-inv F
  0.222219  0.222219  0.500000    0.00000000 261 t-inv F
  0.236108  0.236108  0.500000    0.00000000 262 t-inv F
  0.249996  0.249996  0.500000    0.00000000 263 t-inv F
  0.263885  0.263885  0.500000    0.00000000 264 t-inv F
  0.277774  0.277774  0.500000    0.00000000 265 t-inv F
  0.291663  0.291663  0.500000    0.00000000 266 t-inv F
  0.305551  0.305551  0.500000    0.00000000 267 t-inv F
  0.319440  0.319440  0.500000    0.00000000 268 t-inv F
  0.333329  0.333329  0.500000    0.00000000 269 t-inv F
 -0.333329  0.666671  0.500000    0.00000000 270 t-inv F
 -0.348481  0.651519  0.500000    0.00000000 271 t-inv F
 -0.363633  0.636367  0.500000    0.00000000 272 t-inv F
 -0.378784  0.621216  0.500000    0.00000000 273 t-inv F
 -0.393936  0.606064  0.500000    0.00000000 274 t-inv F
 -0.409088  0.590912  0.500000    0.00000000 275 t-inv F
 -0.424240  0.575760  0.500000    0.00000000 276 t-inv F
 -0.439392  0.560608  0.500000    0.00000000 277 t-inv F
 -0.454544  0.545456  0.500000    0.00000000 278 t-inv F
 -0.469696  0.530304  0.500000    0.00000000 279 t-inv F
 -0.484848  0.515152  0.500000    0.00000000 280 t-inv F
 -0.500000  0.500000  0.500000    0.00000000 281 t-inv F
 -0.500000  0.500000  0.500000    0.00000000 282 t-inv F
 -0.500000  0.500000  0.458333    0.00000000 283 t-inv F
 -0.500000  0.500000  0.416667    0.00000000 284 t-inv F
 -0.500000  0.500000  0.375000    0.00000000 285 t-inv F
 -0.500000  0.500000  0.333333    0.00000000 286 t-inv F
 -0.500000  0.500000  0.291667    0.00000000 287 t-inv F
 -0.500000  0.500000  0.250000    0.00000000 288 t-inv F
 -0.500000  0.500000  0.208333    0.00000000 289 t-inv F
 -0.500000  0.500000  0.166667    0.00000000 290 t-inv F
 -0.500000  0.500000  0.125000    0.00000000 291 t-inv F
 -0.500000  0.500000  0.083333    0.00000000 292 t-inv F
 -0.500000  0.500000  0.041667    0.00000000 293 t-inv F
 -0.500000  0.500000  0.000000    0.00000000 294 t-inv F
  0.000000  0.000000  0.000000    0.00000000 295 t-inv F
  0.000000  0.023810  0.000000    0.00000000 296 t-inv F
  0.000000  0.047619  0.000000    0.00000000 297 t-inv F
  0.000000  0.071429  0.000000    0.00000000 298 t-inv F
  0.000000  0.095238  0.000000    0.00000000 299 t-inv F
  0.000000  0.119048  0.000000    0.00000000 300 t-inv F
  0.000000  0.142857  0.000000    0.00000000 301 t-inv F
  0.000000  0.166667  0.000000    0.00000000 302 t-inv F
  0.000000  0.190476  0.000000    0.00000000 303 t-inv F
  0.000000  0.214286  0.000000    0.00000000 304 t-inv F
  0.000000  0.238095  0.000000    0.00000000 305 t-inv F
  0.000000  0.261905  0.000000    0.00000000 306 t-inv F
  0.000000  0.285714  0.000000    0.00000000 307 t-inv F
  0.000000  0.309524  0.000000    0.00000000 308 t-inv F
  0.000000  0.333333  0.000000    0.00000000 309 t-inv F
  0.000000  0.357143  0.000000    0.00000000 310 t-inv F
  0.000000  0.380952  0.000000    0.00000000 311 t-inv F
  0.000000  0.404762  0.000000    0.00000000 312 t-inv F
  0.000000  0.428571  0.000000    0.00000000 313 t-inv F
  0.000000  0.452381  0.000000    0.00000000 314 t-inv F
  0.000000  0.476190  0.000000    0.00000000 315 t-inv F
  0.000000  0.500000  0.000000    0.00000000 316 t-inv F
  0.000000  0.500000  0.000000    0.00000000 317 t-inv F
  0.000000  0.500000  0.041667    0.00000000 318 t-inv F
  0.000000  0.500000  0.083333    0.00000000 319 t-inv F
  0.000000  0.500000  0.125000    0.00000000 320 t-inv F
  0.000000  0.500000  0.166667    0.00000000 321 t-inv F
  0.000000  0.500000  0.208333    0.00000000 322 t-inv F
  0.000000  0.500000  0.250000    0.00000000 323 t-inv F
  0.000000  0.500000  0.291667    0.00000000 324 t-inv F
  0.000000  0.500000  0.333333    0.00000000 325 t-inv F
  0.000000  0.500000  0.375000    0.00000000 326 t-inv F
  0.000000  0.500000  0.416667    0.00000000 327 t-inv F
  0.000000  0.500000  0.458333    0.00000000 328 t-inv F
  0.000000  0.500000  0.500000    0.00000000 329 t-inv F
  0.000000  0.500000  0.500000    0.00000000 330 t-inv F
  0.000000  0.476190  0.500000    0.00000000 331 t-inv F
  0.000000  0.452381  0.500000    0.00000000 332 t-inv F
  0.000000  0.428571  0.500000    0.00000000 333 t-inv F
  0.000000  0.404762  0.500000    0.00000000 334 t-inv F
  0.000000  0.380952  0.500000    0.00000000 335 t-inv F
  0.000000  0.357143  0.500000    0.00000000 336 t-inv F
  0.000000  0.333333  0.500000    0.00000000 337 t-inv F
  0.000000  0.309524  0.500000    0.00000000 338 t-inv F
  0.000000  0.285714  0.500000    0.00000000 339 t-inv F
  0.000000  0.261905  0.500000    0.00000000 340 t-inv F
  0.000000  0.238095  0.500000    0.00000000 341 t-inv F
  0.000000  0.214286  0.500000    0.00000000 342 t-inv F
  0.000000  0.190476  0.500000    0.00000000 343 t-inv F
  0.000000  0.166667  0.500000    0.00000000 344 t-inv F
  0.000000  0.142857  0.500000    0.00000000 345 t-inv F
  0.000000  0.119048  0.500000    0.00000000 346 t-inv F
  0.000000  0.095238  0.500000    0.00000000 347 t-inv F
  0.000000  0.071429  0.500000    0.00000000 348 t-inv F
  0.000000  0.047619  0.500000    0.00000000 349 t-inv F
  0.000000  0.023810  0.500000    0.00000000 350 t-inv F
  0.000000  0.000000  0.500000    0.00000000 351 t-inv F
  0.000000  0.000000  0.500000    0.00000000 352 t-inv F
 -0.023810  0.023810  0.500000    0.00000000 353 t-inv F
 -0.047619  0.047619  0.500000    0.00000000 354 t-inv F
 -0.071429  0.071429  0.500000    0.00000000 355 t-inv F
 -0.095238  0.095238  0.500000    0.00000000 356 t-inv F
 -0.119048  0.119048  0.500000    0.00000000 357 t-inv F
 -0.142857  0.142857  0.500000    0.00000000 358 t-inv F
 -0.166667  0.166667  0.500000    0.00000000 359 t-inv F
 -0.190476  0.190476  0.500000    0.00000000 360 t-inv F
 -0.214286  0.214286  0.500000    0.00000000 361 t-inv F
 -0.238095  0.238095  0.500000    0.00000000 362 t-inv F
 -0.261905  0.261905  0.500000    0.00000000 363 t-inv F
 -0.285714  0.285714  0.500000    0.00000000 364 t-inv F
 -0.309524  0.309524  0.500000    0.00000000 365 t-inv F
 -0.333333  0.333333  0.500000    0.00000000 366 t-inv F
 -0.357143  0.357143  0.500000    0.00000000 367 t-inv F
 -0.380952  0.380952  0.500000    0.00000000 368 t-inv F
 -0.404762  0.404762  0.500000    0.00000000 369 t-inv F
 -0.428571  0.428571  0.500000    0.00000000 370 t-inv F
 -0.452381  0.452381  0.500000    0.00000000 371 t-inv F
 -0.476190  0.476190  0.500000    0.00000000 372 t-inv F
 -0.500000  0.500000  0.500000    0.00000000 373 t-inv F
 -0.083333  0.000000  0.000000    0.00115741   2 t-inv F
  0.000000  0.083333  0.000000    0.00115741   2 t-inv F
  0.000000 -0.083333  0.000000    0.00115741   2 t-inv F
 -0.166667  0.000000  0.000000    0.00115741   3 t-inv F
  0.000000  0.166667  0.000000    0.00115741   3 t-inv F
  0.000000 -0.166667  0.000000    0.00115741   3 t-inv F
 -0.250000  0.000000  0.000000    0.00115741   4 t-inv F
  0.000000  0.250000  0.000000    0.00115741   4 t-inv F
  0.000000 -0.250000  0.000000    0.00115741   4 t-inv F
 -0.333333  0.000000  0.000000    0.00115741   5 t-inv F
  0.000000  0.333333  0.000000    0.00115741   5 t-inv F
  0.000000 -0.333333  0.000000    0.00115741   5 t-inv F
 -0.416667  0.000000  0.000000    0.00115741   6 t-inv F
  0.000000  0.416667  0.000000    0.00115741   6 t-inv F
  0.000000 -0.416667  0.000000    0.00115741   6 t-inv F
  0.000000  0.500000  0.000000    0.00115741   7 t-inv F
 -0.083333 -0.083333  0.000000    0.00115741   8 t-inv F
 -0.166667 -0.083333  0.000000    0.00115741   9 t-inv F
  0.083333  0.166667  0.000000    0.00115741   9 t-inv F
 -0.083333 -0.166667  0.000000    0.00115741   9 t-inv F
 -0.250000 -0.083333  0.000000    0.00115741  10 t-inv F
  0.083333  0.250000  0.000000    0.00115741  10 t-inv F
 -0.083333 -0.250000  0.000000    0.00115741  10 t-inv F
 -0.333333 -0.083333  0.000000    0.00115741  11 t-inv F
  0.083333  0.333333  0.000000    0.00115741  11 t-inv F
 -0.083333 -0.333333  0.000000    0.00115741  11 t-inv F
 -0.416667 -0.083333  0.000000    0.00115741  12 t-inv F
  0.083333  0.416667  0.000000    0.00115741  12 t-inv F
 -0.083333 -0.416667  0.000000    0.00115741  12 t-inv F
 -0.500000 -0.083333  0.000000    0.00115741  13 t-inv F
  0.083333  0.500000  0.000000    0.00115741  13 t-inv F
 -0.083333 -0.500000  0.000000    0.00115741  13 t-inv F
  0.416667 -0.083333  0.000000    0.00115741  14 t-inv F
  0.083333 -0.416667  0.000000    0.00115741  14 t-inv F
 -0.083333  0.416667  0.000000    0.00115741  14 t-inv F
  0.333333 -0.083333  0.000000    0.00115741  15 t-inv F
  0.083333 -0.333333  0.000000    0.00115741  15 t-inv F
 -0.083333  0.333333  0.000000    0.00115741  15 t-inv F
  0.250000 -0.083333  0.000000    0.00115741  16 t-inv F
  0.083333 -0.250000  0.000000    0.00115741  16 t-inv F
 -0.083333  0.250000  0.000000    0.00115741  16 t-inv F
  0.166667 -0.083333  0.000000    0.00115741  17 t-inv F
  0.083333 -0.166667  0.000000    0.00115741  17 t-inv F
 -0.083333  0.166667  0.000000    0.00115741  17 t-inv F
  0.083333 -0.083333  0.000000    0.00115741  18 t-inv F
 -0.166667 -0.166667  0.000000    0.00115741  19 t-inv F
 -0.250000 -0.166667  0.000000    0.00115741  20 t-inv F
  0.166667  0.250000  0.000000    0.00115741  20 t-inv F
 -0.166667 -0.250000  0.000000    0.00115741  20 t-inv F
 -0.333333 -0.166667  0.000000    0.00115741  21 t-inv F
  0.166667  0.333333  0.000000    0.00115741  21 t-inv F
 -0.166667 -0.333333  0.000000    0.00115741  21 t-inv F
 -0.416667 -0.166667  0.000000    0.00115741  22 t-inv F
  0.166667  0.416667  0.000000    0.00115741  22 t-inv F
 -0.166667 -0.416667  0.000000    0.00115741  22 t-inv F
 -0.500000 -0.166667  0.000000    0.00115741  23 t-inv F
  0.166667  0.500000  0.000000    0.00115741  23 t-inv F
 -0.166667 -0.500000  0.000000    0.00115741  23 t-inv F
  0.416667 -0.166667  0.000000    0.00115741  24 t-inv F
  0.166667 -0.416667  0.000000    0.00115741  24 t-inv F
 -0.166667  0.416667  0.000000    0.00115741  24 t-inv F
  0.333333 -0.166667  0.000000    0.00115741  25 t-inv F
  0.166667 -0.333333  0.000000    0.00115741  25 t-inv F
 -0.166667  0.333333  0.000000    0.00115741  25 t-inv F
  0.250000 -0.166667  0.000000    0.00115741  26 t-inv F
  0.166667 -0.250000  0.000000    0.00115741  26 t-inv F
 -0.166667  0.250000  0.000000    0.00115741  26 t-inv F
  0.166667 -0.166667  0.000000    0.00115741  27 t-inv F
 -0.250000 -0.250000  0.000000    0.00115741  28 t-inv F
 -0.333333 -0.250000  0.000000    0.00115741  29 t-inv F
  0.250000  0.333333  0.000000    0.00115741  29 t-inv F
 -0.250000 -0.333333  0.000000    0.00115741  29 t-inv F
 -0.416667 -0.250000  0.000000    0.00115741  30 t-inv F
  0.250000  0.416667  0.000000    0.00115741  30 t-inv F
 -0.250000 -0.416667  0.000000    0.00115741  30 t-inv F
 -0.500000 -0.250000  0.000000    0.00115741  31 t-inv F
  0.250000  0.500000  0.000000    0.00115741  31 t-inv F
 -0.250000 -0.500000  0.000000    0.00115741  31 t-inv F
  0.416667 -0.250000  0.000000    0.00115741  32 t-inv F
  0.250000 -0.416667  0.000000    0.00115741  32 t-inv F
 -0.250000  0.416667  0.000000    0.00115741  32 t-inv F
  0.333333 -0.250000  0.000000    0.00115741  33 t-inv F
  0.250000 -0.333333  0.000000    0.00115741  33 t-inv F
 -0.250000  0.333333  0.000000    0.00115741  33 t-inv F
  0.250000 -0.250000  0.000000    0.00115741  34 t-inv F
 -0.333333 -0.333333  0.000000    0.00115741  35 t-inv F
 -0.416667 -0.333333  0.000000    0.00115741  36 t-inv F
  0.333333  0.416667  0.000000    0.00115741  36 t-inv F
 -0.333333 -0.416667  0.000000    0.00115741  36 t-inv F
 -0.500000 -0.333333  0.000000    0.00115741  37 t-inv F
  0.333333  0.500000  0.000000    0.00115741  37 t-inv F
 -0.333333 -0.500000  0.000000    0.00115741  37 t-inv F
  0.416667 -0.333333  0.000000    0.00115741  38 t-inv F
  0.333333 -0.416667  0.000000    0.00115741  38 t-inv F
 -0.333333  0.416667  0.000000    0.00115741  38 t-inv F
  0.333333 -0.333333  0.000000    0.00115741  39 t-inv F
 -0.416667 -0.416667  0.000000    0.00115741  40 t-inv F
 -0.500000 -0.416667  0.000000    0.00115741  41 t-inv F
  0.416667  0.500000  0.000000    0.00115741  41 t-inv F
 -0.416667 -0.500000  0.000000    0.00115741  41 t-inv F
  0.416667 -0.416667  0.000000    0.00115741  42 t-inv F
  0.000000  0.000000 -0.166667    0.00115741  44 t-inv F
 -0.083333  0.000000 -0.166667    0.00115741  45 t-inv F
  0.000000  0.083333 -0.166667    0.00115741  45 t-inv F
  0.000000 -0.083333  0.166667    0.00115741  45 t-inv F
 -0.083333  0.000000  0.166667    0.00115741  45 t-inv F
  0.083333  0.000000 -0.166667    0.00115741  45 t-inv F
  0.000000 -0.083333 -0.166667    0.00115741  45 t-inv F
  0.000000  0.083333  0.166667    0.00115741  45 t-inv F
 -0.166667  0.000000 -0.166667    0.00115741  46 t-inv F
  0.000000  0.166667 -0.166667    0.00115741  46 t-inv F
  0.000000 -0.166667  0.166667    0.00115741  46 t-inv F
 -0.166667  0.000000  0.166667    0.00115741  46 t-inv F
  0.166667  0.000000 -0.166667    0.00115741  46 t-inv F
  0.000000 -0.166667 -0.166667    0.00115741  46 t-inv F
  0.000000  0.166667  0.166667    0.00115741  46 t-inv F
 -0.250000  0.000000 -0.166667    0.00115741  47 t-inv F
  0.000000  0.250000 -0.166667    0.00115741  47 t-inv F
  0.000000 -0.250000  0.166667    0.00115741  47 t-inv F
 -0.250000  0.000000  0.166667    0.00115741  47 t-inv F
  0.250000  0.000000 -0.166667    0.00115741  47 t-inv F
  0.000000 -0.250000 -0.166667    0.00115741  47 t-inv F
  0.000000  0.250000  0.166667    0.00115741  47 t-inv F
 -0.333333  0.000000 -0.166667    0.00115741  48 t-inv F
  0.000000  0.333333 -0.166667    0.00115741  48 t-inv F
  0.000000 -0.333333  0.166667    0.00115741  48 t-inv F
 -0.333333  0.000000  0.166667    0.00115741  48 t-inv F
  0.333333  0.000000 -0.166667    0.00115741  48 t-inv F
  0.000000 -0.333333 -0.166667    0.00115741  48 t-inv F
  0.000000  0.333333  0.166667    0.00115741  48 t-inv F
 -0.416667  0.000000 -0.166667    0.00115741  49 t-inv F
  0.000000  0.416667 -0.166667    0.00115741  49 t-inv F
  0.000000 -0.416667  0.166667    0.00115741  49 t-inv F
 -0.416667  0.000000  0.166667    0.00115741  49 t-inv F
  0.416667  0.000000 -0.166667    0.00115741  49 t-inv F
  0.000000 -0.416667 -0.166667    0.00115741  49 t-inv F
  0.000000  0.416667  0.166667    0.00115741  49 t-inv F
 -0.500000  0.000000 -0.166667    0.00115741  50 t-inv F
  0.000000  0.500000 -0.166667    0.00115741  50 t-inv F
  0.000000 -0.500000  0.166667    0.00115741  50 t-inv F
 -0.083333 -0.083333 -0.166667    0.00115741  51 t-inv F
  0.083333  0.083333 -0.166667    0.00115741  51 t-inv F
 -0.083333 -0.083333  0.166667    0.00115741  51 t-inv F
 -0.166667 -0.083333 -0.166667    0.00115741  52 t-inv F
  0.083333  0.166667 -0.166667    0.00115741  52 t-inv F
 -0.083333 -0.166667  0.166667    0.00115741  52 t-inv F
 -0.166667 -0.083333  0.166667    0.00115741  52 t-inv F
  0.166667  0.083333 -0.166667    0.00115741  52 t-inv F
 -0.083333 -0.166667 -0.166667    0.00115741  52 t-inv F
  0.083333  0.166667  0.166667    0.00115741  52 t-inv F
 -0.250000 -0.083333 -0.166667    0.00115741  53 t-inv F
  0.083333  0.250000 -0.166667    0.00115741  53 t-inv F
 -0.083333 -0.250000  0.166667    0.00115741  53 t-inv F
 -0.250000 -0.083333  0.166667    0.00115741  53 t-inv F
  0.250000  0.083333 -0.166667    0.00115741  53 t-inv F
 -0.083333 -0.250000 -0.166667    0.00115741  53 t-inv F
  0.083333  0.250000  0.166667    0.00115741  53 t-inv F
 -0.333333 -0.083333 -0.166667    0.00115741  54 t-inv F
  0.083333  0.333333 -0.166667    0.00115741  54 t-inv F
 -0.083333 -0.333333  0.166667    0.00115741  54 t-inv F
 -0.333333 -0.083333  0.166667    0.00115741  54 t-inv F
  0.333333  0.083333 -0.166667    0.00115741  54 t-inv F
 -0.083333 -0.333333 -0.166667    0.00115741  54 t-inv F
  0.083333  0.333333  0.166667    0.00115741  54 t-inv F
 -0.416667 -0.083333 -0.166667    0.00115741  55 t-inv F
  0.083333  0.416667 -0.166667    0.00115741  55 t-inv F
 -0.083333 -0.416667  0.166667    0.00115741  55 t-inv F
 -0.416667 -0.083333  0.166667    0.00115741  55 t-inv F
  0.416667  0.083333 -0.166667    0.00115741  55 t-inv F
 -0.083333 -0.416667 -0.166667    0.00115741  55 t-inv F
  0.083333  0.416667  0.166667    0.00115741  55 t-inv F
 -0.500000 -0.083333 -0.166667    0.00115741  56 t-inv F
  0.083333  0.500000 -0.166667    0.00115741  56 t-inv F
 -0.083333 -0.500000  0.166667    0.00115741  56 t-inv F
 -0.500000 -0.083333  0.166667    0.00115741  56 t-inv F
  0.500000  0.083333 -0.166667    0.00115741  56 t-inv F
 -0.083333 -0.500000 -0.166667    0.00115741  56 t-inv F
  0.083333  0.500000  0.166667    0.00115741  56 t-inv F
  0.416667 -0.083333 -0.166667    0.00115741  57 t-inv F
  0.083333 -0.416667 -0.166667    0.00115741  57 t-inv F
 -0.083333  0.416667  0.166667    0.00115741  57 t-inv F
  0.416667 -0.083333  0.166667    0.00115741  57 t-inv F
 -0.416667  0.083333 -0.166667    0.00115741  57 t-inv F
 -0.083333  0.416667 -0.166667    0.00115741  57 t-inv F
  0.083333 -0.416667  0.166667    0.00115741  57 t-inv F
  0.333333 -0.083333 -0.166667    0.00115741  58 t-inv F
  0.083333 -0.333333 -0.166667    0.00115741  58 t-inv F
 -0.083333  0.333333  0.166667    0.00115741  58 t-inv F
  0.333333 -0.083333  0.166667    0.00115741  58 t-inv F
 -0.333333  0.083333 -0.166667    0.00115741  58 t-inv F
 -0.083333  0.333333 -0.166667    0.00115741  58 t-inv F
  0.083333 -0.333333  0.166667    0.00115741  58 t-inv F
  0.250000 -0.083333 -0.166667    0.00115741  59 t-inv F
  0.083333 -0.250000 -0.166667    0.00115741  59 t-inv F
 -0.083333  0.250000  0.166667    0.00115741  59 t-inv F
  0.250000 -0.083333  0.166667    0.00115741  59 t-inv F
 -0.250000  0.083333 -0.166667    0.00115741  59 t-inv F
 -0.083333  0.250000 -0.166667    0.00115741  59 t-inv F
  0.083333 -0.250000  0.166667    0.00115741  59 t-inv F
  0.166667 -0.083333 -0.166667    0.00115741  60 t-inv F
  0.083333 -0.166667 -0.166667    0.00115741  60 t-inv F
 -0.083333  0.166667  0.166667    0.00115741  60 t-inv F
  0.166667 -0.083333  0.166667    0.00115741  60 t-inv F
 -0.166667  0.083333 -0.166667    0.00115741  60 t-inv F
 -0.083333  0.166667 -0.166667    0.00115741  60 t-inv F
  0.083333 -0.166667  0.166667    0.00115741  60 t-inv F
  0.083333 -0.083333 -0.166667    0.00115741  61 t-inv F
  0.083333 -0.083333  0.166667    0.00115741  61 t-inv F
 -0.083333  0.083333 -0.166667    0.00115741  61 t-inv F
 -0.166667 -0.166667 -0.166667    0.00115741  62 t-inv F
  0.166667  0.166667 -0.166667    0.00115741  62 t-inv F
 -0.166667 -0.166667  0.166667    0.00115741  62 t-inv F
 -0.250000 -0.166667 -0.166667    0.00115741  63 t-inv F
  0.166667  0.250000 -0.166667    0.00115741  63 t-inv F
 -0.166667 -0.250000  0.166667    0.00115741  63 t-inv F
 -0.250000 -0.166667  0.166667    0.00115741  63 t-inv F
  0.250000  0.166667 -0.166667    0.00115741  63 t-inv F
 -0.166667 -0.250000 -0.166667    0.00115741  63 t-inv F
  0.166667  0.250000  0.166667    0.00115741  63 t-inv F
 -0.333333 -0.166667 -0.166667    0.00115741  64 t-inv F
  0.166667  0.333333 -0.166667    0.00115741  64 t-inv F
 -0.166667 -0.333333  0.166667    0.00115741  64 t-inv F
 -0.333333 -0.166667  0.166667    0.00115741  64 t-inv F
  0.333333  0.166667 -0.166667    0.00115741  64 t-inv F
 -0.166667 -0.333333 -0.166667    0.00115741  64 t-inv F
  0.166667  0.333333  0.166667    0.00115741  64 t-inv F
 -0.416667 -0.166667 -0.166667    0.00115741  65 t-inv F
  0.166667  0.416667 -0.166667    0.00115741  65 t-inv F
 -0.166667 -0.416667  0.166667    0.00115741  65 t-inv F
 -0.416667 -0.166667  0.166667    0.00115741  65 t-inv F
  0.416667  0.166667 -0.166667    0.00115741  65 t-inv F
 -0.166667 -0.416667 -0.166667    0.00115741  65 t-inv F
  0.166667  0.416667  0.166667    0.00115741  65 t-inv F
 -0.500000 -0.166667 -0.166667    0.00115741  66 t-inv F
  0.166667  0.500000 -0.166667    0.00115741  66 t-inv F
 -0.166667 -0.500000  0.166667    0.00115741  66 t-inv F
 -0.500000 -0.166667  0.166667    0.00115741  66 t-inv F
  0.500000  0.166667 -0.166667    0.00115741  66 t-inv F
 -0.166667 -0.500000 -0.166667    0.00115741  66 t-inv F
  0.166667  0.500000  0.166667    0.00115741  66 t-inv F
  0.416667 -0.166667 -0.166667    0.00115741  67 t-inv F
  0.166667 -0.416667 -0.166667    0.00115741  67 t-inv F
 -0.166667  0.416667  0.166667    0.00115741  67 t-inv F
  0.416667 -0.166667  0.166667    0.00115741  67 t-inv F
 -0.416667  0.166667 -0.166667    0.00115741  67 t-inv F
 -0.166667  0.416667 -0.166667    0.00115741  67 t-inv F
  0.166667 -0.416667  0.166667    0.00115741  67 t-inv F
  0.333333 -0.166667 -0.166667    0.00115741  68 t-inv F
  0.166667 -0.333333 -0.166667    0.00115741  68 t-inv F
 -0.166667  0.333333  0.166667    0.00115741  68 t-inv F
  0.333333 -0.166667  0.166667    0.00115741  68 t-inv F
 -0.333333  0.166667 -0.166667    0.00115741  68 t-inv F
 -0.166667  0.333333 -0.166667    0.00115741  68 t-inv F
  0.166667 -0.333333  0.166667    0.00115741  68 t-inv F
  0.250000 -0.166667 -0.166667    0.00115741  69 t-inv F
  0.166667 -0.250000 -0.166667    0.00115741  69 t-inv F
 -0.166667  0.250000  0.166667    0.00115741  69 t-inv F
  0.250000 -0.166667  0.166667    0.00115741  69 t-inv F
 -0.250000  0.166667 -0.166667    0.00115741  69 t-inv F
 -0.166667  0.250000 -0.166667    0.00115741  69 t-inv F
  0.166667 -0.250000  0.166667    0.00115741  69 t-inv F
  0.166667 -0.166667 -0.166667    0.00115741  70 t-inv F
  0.166667 -0.166667  0.166667    0.00115741  70 t-inv F
 -0.166667  0.166667 -0.166667    0.00115741  70 t-inv F
 -0.250000 -0.250000 -0.166667    0.00115741  71 t-inv F
  0.250000  0.250000 -0.166667    0.00115741  71 t-inv F
 -0.250000 -0.250000  0.166667    0.00115741  71 t-inv F
 -0.333333 -0.250000 -0.166667    0.00115741  72 t-inv F
  0.250000  0.333333 -0.166667    0.00115741  72 t-inv F
 -0.250000 -0.333333  0.166667    0.00115741  72 t-inv F
 -0.333333 -0.250000  0.166667    0.00115741  72 t-inv F
  0.333333  0.250000 -0.166667    0.00115741  72 t-inv F
 -0.250000 -0.333333 -0.166667    0.00115741  72 t-inv F
  0.250000  0.333333  0.166667    0.00115741  72 t-inv F
 -0.416667 -0.250000 -0.166667    0.00115741  73 t-inv F
  0.250000  0.416667 -0.166667    0.00115741  73 t-inv F
 -0.250000 -0.416667  0.166667    0.00115741  73 t-inv F
 -0.416667 -0.250000  0.166667    0.00115741  73 t-inv F
  0.416667  0.250000 -0.166667    0.00115741  73 t-inv F
 -0.250000 -0.416667 -0.166667    0.00115741  73 t-inv F
  0.250000  0.416667  0.166667    0.00115741  73 t-inv F
 -0.500000 -0.250000 -0.166667    0.00115741  74 t-inv F
  0.250000  0.500000 -0.166667    0.00115741  74 t-inv F
 -0.250000 -0.500000  0.166667    0.00115741  74 t-inv F
 -0.500000 -0.250000  0.166667    0.00115741  74 t-inv F
  0.500000  0.250000 -0.166667    0.00115741  74 t-inv F
 -0.250000 -0.500000 -0.166667    0.00115741  74 t-inv F
  0.250000  0.500000  0.166667    0.00115741  74 t-inv F
  0.416667 -0.250000 -0.166667    0.00115741  75 t-inv F
  0.250000 -0.416667 -0.166667    0.00115741  75 t-inv F
 -0.250000  0.416667  0.166667    0.00115741  75 t-inv F
  0.416667 -0.250000  0.166667    0.00115741  75 t-inv F
 -0.416667  0.250000 -0.166667    0.00115741  75 t-inv F
 -0.250000  0.416667 -0.166667    0.00115741  75 t-inv F
  0.250000 -0.416667  0.166667    0.00115741  75 t-inv F
  0.333333 -0.250000 -0.166667    0.00115741  76 t-inv F
  0.250000 -0.333333 -0.166667    0.00115741  76 t-inv F
 -0.250000  0.333333  0.166667    0.00115741  76 t-inv F
  0.333333 -0.250000  0.166667    0.00115741  76 t-inv F
 -0.333333  0.250000 -0.166667    0.00115741  76 t-inv F
 -0.250000  0.333333 -0.166667    0.00115741  76 t-inv F
  0.250000 -0.333333  0.166667    0.00115741  76 t-inv F
  0.250000 -0.250000 -0.166667    0.00115741  77 t-inv F
  0.250000 -0.250000  0.166667    0.00115741  77 t-inv F
 -0.250000  0.250000 -0.166667    0.00115741  77 t-inv F
 -0.333333 -0.333333 -0.166667    0.00115741  78 t-inv F
  0.333333  0.333333 -0.166667    0.00115741  78 t-inv F
 -0.333333 -0.333333  0.166667    0.00115741  78 t-inv F
 -0.416667 -0.333333 -0.166667    0.00115741  79 t-inv F
  0.333333  0.416667 -0.166667    0.00115741  79 t-inv F
 -0.333333 -0.416667  0.166667    0.00115741  79 t-inv F
 -0.416667 -0.333333  0.166667    0.00115741  79 t-inv F
  0.416667  0.333333 -0.166667    0.00115741  79 t-inv F
 -0.333333 -0.416667 -0.166667    0.00115741  79 t-inv F
  0.333333  0.416667  0.166667    0.00115741  79 t-inv F
 -0.500000 -0.333333 -0.166667    0.00115741  80 t-inv F
  0.333333  0.500000 -0.166667    0.00115741  80 t-inv F
 -0.333333 -0.500000  0.166667    0.00115741  80 t-inv F
 -0.500000 -0.333333  0.166667    0.00115741  80 t-inv F
  0.500000  0.333333 -0.166667    0.00115741  80 t-inv F
 -0.333333 -0.500000 -0.166667    0.00115741  80 t-inv F
  0.333333  0.500000  0.166667    0.00115741  80 t-inv F
  0.416667 -0.333333 -0.166667    0.00115741  81 t-inv F
  0.333333 -0.416667 -0.166667    0.00115741  81 t-inv F
 -0.333333  0.416667  0.166667    0.00115741  81 t-inv F
  0.416667 -0.333333  0.166667    0.00115741  81 t-inv F
 -0.416667  0.333333 -0.166667    0.00115741  81 t-inv F
 -0.333333  0.416667 -0.166667    0.00115741  81 t-inv F
  0.333333 -0.416667  0.166667    0.00115741  81 t-inv F
  0.333333 -0.333333 -0.166667    0.00115741  82 t-inv F
  0.333333 -0.333333  0.166667    0.00115741  82 t-inv F
 -0.333333  0.333333 -0.166667    0.00115741  82 t-inv F
 -0.416667 -0.416667 -0.166667    0.00115741  83 t-inv F
  0.416667  0.416667 -0.166667    0.00115741  83 t-inv F
 -0.416667 -0.416667  0.166667    0.00115741  83 t-inv F
 -0.500000 -0.416667 -0.166667    0.00115741  84 t-inv F
  0.416667  0.500000 -0.166667    0.00115741  84 t-inv F
 -0.416667 -0.500000  0.166667    0.00115741  84 t-inv F
 -0.500000 -0.416667  0.166667    0.00115741  84 t-inv F
  0.500000  0.416667 -0.166667    0.00115741  84 t-inv F
 -0.416667 -0.500000 -0.166667    0.00115741  84 t-inv F
  0.416667  0.500000  0.166667    0.00115741  84 t-inv F
  0.416667 -0.416667 -0.166667    0.00115741  85 t-inv F
  0.416667 -0.416667  0.166667    0.00115741  85 t-inv F
 -0.416667  0.416667 -0.166667    0.00115741  85 t-inv F
 -0.500000 -0.500000 -0.166667    0.00115741  86 t-inv F
  0.000000  0.000000 -0.333333    0.00115741  87 t-inv F
 -0.083333  0.000000 -0.333333    0.00115741  88 t-inv F
  0.000000  0.083333 -0.333333    0.00115741  88 t-inv F
  0.000000 -0.083333  0.333333    0.00115741  88 t-inv F
 -0.083333  0.000000  0.333333    0.00115741  88 t-inv F
  0.083333  0.000000 -0.333333    0.00115741  88 t-inv F
  0.000000 -0.083333 -0.333333    0.00115741  88 t-inv F
  0.000000  0.083333  0.333333    0.00115741  88 t-inv F
 -0.166667  0.000000 -0.333333    0.00115741  89 t-inv F
  0.000000  0.166667 -0.333333    0.00115741  89 t-inv F
  0.000000 -0.166667  0.333333    0.00115741  89 t-inv F
 -0.166667  0.000000  0.333333    0.00115741  89 t-inv F
  0.166667  0.000000 -0.333333    0.00115741  89 t-inv F
  0.000000 -0.166667 -0.333333    0.00115741  89 t-inv F
  0.000000  0.166667  0.333333    0.00115741  89 t-inv F
 -0.250000  0.000000 -0.333333    0.00115741  90 t-inv F
  0.000000  0.250000 -0.333333    0.00115741  90 t-inv F
  0.000000 -0.250000  0.333333    0.00115741  90 t-inv F
 -0.250000  0.000000  0.333333    0.00115741  90 t-inv F
  0.250000  0.000000 -0.333333    0.00115741  90 t-inv F
  0.000000 -0.250000 -0.333333    0.00115741  90 t-inv F
  0.000000  0.250000  0.333333    0.00115741  90 t-inv F
 -0.333333  0.000000 -0.333333    0.00115741  91 t-inv F
  0.000000  0.333333 -0.333333    0.00115741  91 t-inv F
  0.000000 -0.333333  0.333333    0.00115741  91 t-inv F
 -0.333333  0.000000  0.333333    0.00115741  91 t-inv F
  0.333333  0.000000 -0.333333    0.00115741  91 t-inv F
  0.000000 -0.333333 -0.333333    0.00115741  91 t-inv F
  0.000000  0.333333  0.333333    0.00115741  91 t-inv F
 -0.416667  0.000000 -0.333333    0.00115741  92 t-inv F
  0.000000  0.416667 -0.333333    0.00115741  92 t-inv F
  0.000000 -0.416667  0.333333    0.00115741  92 t-inv F
 -0.416667  0.000000  0.333333    0.00115741  92 t-inv F
  0.416667  0.000000 -0.333333    0.00115741  92 t-inv F
  0.000000 -0.416667 -0.333333    0.00115741  92 t-inv F
  0.000000  0.416667  0.333333    0.00115741  92 t-inv F
 -0.500000  0.000000 -0.333333    0.00115741  93 t-inv F
  0.000000  0.500000 -0.333333    0.00115741  93 t-inv F
  0.000000 -0.500000  0.333333    0.00115741  93 t-inv F
 -0.083333 -0.083333 -0.333333    0.00115741  94 t-inv F
  0.083333  0.083333 -0.333333    0.00115741  94 t-inv F
 -0.083333 -0.083333  0.333333    0.00115741  94 t-inv F
 -0.166667 -0.083333 -0.333333    0.00115741  95 t-inv F
  0.083333  0.166667 -0.333333    0.00115741  95 t-inv F
 -0.083333 -0.166667  0.333333    0.00115741  95 t-inv F
 -0.166667 -0.083333  0.333333    0.00115741  95 t-inv F
  0.166667  0.083333 -0.333333    0.00115741  95 t-inv F
 -0.083333 -0.166667 -0.333333    0.00115741  95 t-inv F
  0.083333  0.166667  0.333333    0.00115741  95 t-inv F
 -0.250000 -0.083333 -0.333333    0.00115741  96 t-inv F
  0.083333  0.250000 -0.333333    0.00115741  96 t-inv F
 -0.083333 -0.250000  0.333333    0.00115741  96 t-inv F
 -0.250000 -0.083333  0.333333    0.00115741  96 t-inv F
  0.250000  0.083333 -0.333333    0.00115741  96 t-inv F
 -0.083333 -0.250000 -0.333333    0.00115741  96 t-inv F
  0.083333  0.250000  0.333333    0.00115741  96 t-inv F
 -0.333333 -0.083333 -0.333333    0.00115741  97 t-inv F
  0.083333  0.333333 -0.333333    0.00115741  97 t-inv F
 -0.083333 -0.333333  0.333333    0.00115741  97 t-inv F
 -0.333333 -0.083333  0.333333    0.00115741  97 t-inv F
  0.333333  0.083333 -0.333333    0.00115741  97 t-inv F
 -0.083333 -0.333333 -0.333333    0.00115741  97 t-inv F
  0.083333  0.333333  0.333333    0.00115741  97 t-inv F
 -0.416667 -0.083333 -0.333333    0.00115741  98 t-inv F
  0.083333  0.416667 -0.333333    0.00115741  98 t-inv F
 -0.083333 -0.416667  0.333333    0.00115741  98 t-inv F
 -0.416667 -0.083333  0.333333    0.00115741  98 t-inv F
  0.416667  0.083333 -0.333333    0.00115741  98 t-inv F
 -0.083333 -0.416667 -0.333333    0.00115741  98 t-inv F
  0.083333  0.416667  0.333333    0.00115741  98 t-inv F
 -0.500000 -0.083333 -0.333333    0.00115741  99 t-inv F
  0.083333  0.500000 -0.333333    0.00115741  99 t-inv F
 -0.083333 -0.500000  0.333333    0.00115741  99 t-inv F
 -0.500000 -0.083333  0.333333    0.00115741  99 t-inv F
  0.500000  0.083333 -0.333333    0.00115741  99 t-inv F
 -0.083333 -0.500000 -0.333333    0.00115741  99 t-inv F
  0.083333  0.500000  0.333333    0.00115741  99 t-inv F
  0.416667 -0.083333 -0.333333    0.00115741 100 t-inv F
  0.083333 -0.416667 -0.333333    0.00115741 100 t-inv F
 -0.083333  0.416667  0.333333    0.00115741 100 t-inv F
  0.416667 -0.083333  0.333333    0.00115741 100 t-inv F
 -0.416667  0.083333 -0.333333    0.00115741 100 t-inv F
 -0.083333  0.416667 -0.333333    0.00115741 100 t-inv F
  0.083333 -0.416667  0.333333    0.00115741 100 t-inv F
  0.333333 -0.083333 -0.333333    0.00115741 101 t-inv F
  0.083333 -0.333333 -0.333333    0.00115741 101 t-inv F
 -0.083333  0.333333  0.333333    0.00115741 101 t-inv F
  0.333333 -0.083333  0.333333    0.00115741 101 t-inv F
 -0.333333  0.083333 -0.333333    0.00115741 101 t-inv F
 -0.083333  0.333333 -0.333333    0.00115741 101 t-inv F
  0.083333 -0.333333  0.333333    0.00115741 101 t-inv F
  0.250000 -0.083333 -0.333333    0.00115741 102 t-inv F
  0.083333 -0.250000 -0.333333    0.00115741 102 t-inv F
 -0.083333  0.250000  0.333333    0.00115741 102 t-inv F
  0.250000 -0.083333  0.333333    0.00115741 102 t-inv F
 -0.250000  0.083333 -0.333333    0.00115741 102 t-inv F
 -0.083333  0.250000 -0.333333    0.00115741 102 t-inv F
  0.083333 -0.250000  0.333333    0.00115741 102 t-inv F
  0.166667 -0.083333 -0.333333    0.00115741 103 t-inv F
  0.083333 -0.166667 -0.333333    0.00115741 103 t-inv F
 -0.083333  0.166667  0.333333    0.00115741 103 t-inv F
  0.166667 -0.083333  0.333333    0.00115741 103 t-inv F
 -0.166667  0.083333 -0.333333    0.00115741 103 t-inv F
 -0.083333  0.166667 -0.333333    0.00115741 103 t-inv F
  0.083333 -0.166667  0.333333    0.00115741 103 t-inv F
  0.083333 -0.083333 -0.333333    0.00115741 104 t-inv F
  0.083333 -0.083333  0.333333    0.00115741 104 t-inv F
 -0.083333  0.083333 -0.333333    0.00115741 104 t-inv F
 -0.166667 -0.166667 -0.333333    0.00115741 105 t-inv F
  0.166667  0.166667 -0.333333    0.00115741 105 t-inv F
 -0.166667 -0.166667  0.333333    0.00115741 105 t-inv F
 -0.250000 -0.166667 -0.333333    0.00115741 106 t-inv F
  0.166667  0.250000 -0.333333    0.00115741 106 t-inv F
 -0.166667 -0.250000  0.333333    0.00115741 106 t-inv F
 -0.250000 -0.166667  0.333333    0.00115741 106 t-inv F
  0.250000  0.166667 -0.333333    0.00115741 106 t-inv F
 -0.166667 -0.250000 -0.333333    0.00115741 106 t-inv F
  0.166667  0.250000  0.333333    0.00115741 106 t-inv F
 -0.333333 -0.166667 -0.333333    0.00115741 107 t-inv F
  0.166667  0.333333 -0.333333    0.00115741 107 t-inv F
 -0.166667 -0.333333  0.333333    0.00115741 107 t-inv F
 -0.333333 -0.166667  0.333333    0.00115741 107 t-inv F
  0.333333  0.166667 -0.333333    0.00115741 107 t-inv F
 -0.166667 -0.333333 -0.333333    0.00115741 107 t-inv F
  0.166667  0.333333  0.333333    0.00115741 107 t-inv F
 -0.416667 -0.166667 -0.333333    0.00115741 108 t-inv F
  0.166667  0.416667 -0.333333    0.00115741 108 t-inv F
 -0.166667 -0.416667  0.333333    0.00115741 108 t-inv F
 -0.416667 -0.166667  0.333333    0.00115741 108 t-inv F
  0.416667  0.166667 -0.333333    0.00115741 108 t-inv F
 -0.166667 -0.416667 -0.333333    0.00115741 108 t-inv F
  0.166667  0.416667  0.333333    0.00115741 108 t-inv F
 -0.500000 -0.166667 -0.333333    0.00115741 109 t-inv F
  0.166667  0.500000 -0.333333    0.00115741 109 t-inv F
 -0.166667 -0.500000  0.333333    0.00115741 109 t-inv F
 -0.500000 -0.166667  0.333333    0.00115741 109 t-inv F
  0.500000  0.166667 -0.333333    0.00115741 109 t-inv F
 -0.166667 -0.500000 -0.333333    0.00115741 109 t-inv F
  0.166667  0.500000  0.333333    0.00115741 109 t-inv F
  0.416667 -0.166667 -0.333333    0.00115741 110 t-inv F
  0.166667 -0.416667 -0.333333    0.00115741 110 t-inv F
 -0.166667  0.416667  0.333333    0.00115741 110 t-inv F
  0.416667 -0.166667  0.333333    0.00115741 110 t-inv F
 -0.416667  0.166667 -0.333333    0.00115741 110 t-inv F
 -0.166667  0.416667 -0.333333    0.00115741 110 t-inv F
  0.166667 -0.416667  0.333333    0.00115741 110 t-inv F
  0.333333 -0.166667 -0.333333    0.00115741 111 t-inv F
  0.166667 -0.333333 -0.333333    0.00115741 111 t-inv F
 -0.166667  0.333333  0.333333    0.00115741 111 t-inv F
  0.333333 -0.166667  0.333333    0.00115741 111 t-inv F
 -0.333333  0.166667 -0.333333    0.00115741 111 t-inv F
 -0.166667  0.333333 -0.333333    0.00115741 111 t-inv F
  0.166667 -0.333333  0.333333    0.00115741 111 t-inv F
  0.250000 -0.166667 -0.333333    0.00115741 112 t-inv F
  0.166667 -0.250000 -0.333333    0.00115741 112 t-inv F
 -0.166667  0.250000  0.333333    0.00115741 112 t-inv F
  0.250000 -0.166667  0.333333    0.00115741 112 t-inv F
 -0.250000  0.166667 -0.333333    0.00115741 112 t-inv F
 -0.166667  0.250000 -0.333333    0.00115741 112 t-inv F
  0.166667 -0.250000  0.333333    0.00115741 112 t-inv F
  0.166667 -0.166667 -0.333333    0.00115741 113 t-inv F
  0.166667 -0.166667  0.333333    0.00115741 113 t-inv F
 -0.166667  0.166667 -0.333333    0.00115741 113 t-inv F
 -0.250000 -0.250000 -0.333333    0.00115741 114 t-inv F
  0.250000  0.250000 -0.333333    0.00115741 114 t-inv F
 -0.250000 -0.250000  0.333333    0.00115741 114 t-inv F
 -0.333333 -0.250000 -0.333333    0.00115741 115 t-inv F
  0.250000  0.333333 -0.333333    0.00115741 115 t-inv F
 -0.250000 -0.333333  0.333333    0.00115741 115 t-inv F
 -0.333333 -0.250000  0.333333    0.00115741 115 t-inv F
  0.333333  0.250000 -0.333333    0.00115741 115 t-inv F
 -0.250000 -0.333333 -0.333333    0.00115741 115 t-inv F
  0.250000  0.333333  0.333333    0.00115741 115 t-inv F
 -0.416667 -0.250000 -0.333333    0.00115741 116 t-inv F
  0.250000  0.416667 -0.333333    0.00115741 116 t-inv F
 -0.250000 -0.416667  0.333333    0.00115741 116 t-inv F
 -0.416667 -0.250000  0.333333    0.00115741 116 t-inv F
  0.416667  0.250000 -0.333333    0.00115741 116 t-inv F
 -0.250000 -0.416667 -0.333333    0.00115741 116 t-inv F
  0.250000  0.416667  0.333333    0.00115741 116 t-inv F
 -0.500000 -0.250000 -0.333333    0.00115741 117 t-inv F
  0.250000  0.500000 -0.333333    0.00115741 117 t-inv F
 -0.250000 -0.500000  0.333333    0.00115741 117 t-inv F
 -0.500000 -0.250000  0.333333    0.00115741 117 t-inv F
  0.500000  0.250000 -0.333333    0.00115741 117 t-inv F
 -0.250000 -0.500000 -0.333333    0.00115741 117 t-inv F
  0.250000  0.500000  0.333333    0.00115741 117 t-inv F
  0.416667 -0.250000 -0.333333    0.00115741 118 t-inv F
  0.250000 -0.416667 -0.333333    0.00115741 118 t-inv F
 -0.250000  0.416667  0.333333    0.00115741 118 t-inv F
  0.416667 -0.250000  0.333333    0.00115741 118 t-inv F
 -0.416667  0.250000 -0.333333    0.00115741 118 t-inv F
 -0.250000  0.416667 -0.333333    0.00115741 118 t-inv F
  0.250000 -0.416667  0.333333    0.00115741 118 t-inv F
  0.333333 -0.250000 -0.333333    0.00115741 119 t-inv F
  0.250000 -0.333333 -0.333333    0.00115741 119 t-inv F
 -0.250000  0.333333  0.333333    0.00115741 119 t-inv F
  0.333333 -0.250000  0.333333    0.00115741 119 t-inv F
 -0.333333  0.250000 -0.333333    0.00115741 119 t-inv F
 -0.250000  0.333333 -0.333333    0.00115741 119 t-inv F
  0.250000 -0.333333  0.333333    0.00115741 119 t-inv F
  0.250000 -0.250000 -0.333333    0.00115741 120 t-inv F
  0.250000 -0.250000  0.333333    0.00115741 120 t-inv F
 -0.250000  0.250000 -0.333333    0.00115741 120 t-inv F
 -0.333333 -0.333333 -0.333333    0.00115741 121 t-inv F
  0.333333  0.333333 -0.333333    0.00115741 121 t-inv F
 -0.333333 -0.333333  0.333333    0.00115741 121 t-inv F
 -0.416667 -0.333333 -0.333333    0.00115741 122 t-inv F
  0.333333  0.416667 -0.333333    0.00115741 122 t-inv F
 -0.333333 -0.416667  0.333333    0.00115741 122 t-inv F
 -0.416667 -0.333333  0.333333    0.00115741 122 t-inv F
  0.416667  0.333333 -0.333333    0.00115741 122 t-inv F
 -0.333333 -0.416667 -0.333333    0.00115741 122 t-inv F
  0.333333  0.416667  0.333333    0.00115741 122 t-inv F
 -0.500000 -0.333333 -0.333333    0.00115741 123 t-inv F
  0.333333  0.500000 -0.333333    0.00115741 123 t-inv F
 -0.333333 -0.500000  0.333333    0.00115741 123 t-inv F
 -0.500000 -0.333333  0.333333    0.00115741 123 t-inv F
  0.500000  0.333333 -0.333333    0.00115741 123 t-inv F
 -0.333333 -0.500000 -0.333333    0.00115741 123 t-inv F
  0.333333  0.500000  0.333333    0.00115741 123 t-inv F
  0.416667 -0.333333 -0.333333    0.00115741 124 t-inv F
  0.333333 -0.416667 -0.333333    0.00115741 124 t-inv F
 -0.333333  0.416667  0.333333    0.00115741 124 t-inv F
  0.416667 -0.333333  0.333333    0.00115741 124 t-inv F
 -0.416667  0.333333 -0.333333    0.00115741 124 t-inv F
 -0.333333  0.416667 -0.333333    0.00115741 124 t-inv F
  0.333333 -0.416667  0.333333    0.00115741 124 t-inv F
  0.333333 -0.333333 -0.333333    0.00115741 125 t-inv F
  0.333333 -0.333333  0.333333    0.00115741 125 t-inv F
 -0.333333  0.333333 -0.333333    0.00115741 125 t-inv F
 -0.416667 -0.416667 -0.333333    0.00115741 126 t-inv F
  0.416667  0.416667 -0.333333    0.00115741 126 t-inv F
 -0.416667 -0.416667  0.333333    0.00115741 126 t-inv F
 -0.500000 -0.416667 -0.333333    0.00115741 127 t-inv F
  0.416667  0.500000 -0.333333    0.00115741 127 t-inv F
 -0.416667 -0.500000  0.333333    0.00115741 127 t-inv F
 -0.500000 -0.416667  0.333333    0.00115741 127 t-inv F
  0.500000  0.416667 -0.333333    0.00115741 127 t-inv F
 -0.416667 -0.500000 -0.333333    0.00115741 127 t-inv F
  0.416667  0.500000  0.333333    0.00115741 127 t-inv F
  0.416667 -0.416667 -0.333333    0.00115741 128 t-inv F
  0.416667 -0.416667  0.333333    0.00115741 128 t-inv F
 -0.416667  0.416667 -0.333333    0.00115741 128 t-inv F
 -0.500000 -0.500000 -0.333333    0.00115741 129 t-inv F
 -0.083333  0.000000 -0.500000    0.00115741 131 t-inv F
  0.000000  0.083333 -0.500000    0.00115741 131 t-inv F
  0.000000 -0.083333  0.500000    0.00115741 131 t-inv F
 -0.166667  0.000000 -0.500000    0.00115741 132 t-inv F
  0.000000  0.166667 -0.500000    0.00115741 132 t-inv F
  0.000000 -0.166667  0.500000    0.00115741 132 t-inv F
 -0.250000  0.000000 -0.500000    0.00115741 133 t-inv F
  0.000000  0.250000 -0.500000    0.00115741 133 t-inv F
  0.000000 -0.250000  0.500000    0.00115741 133 t-inv F
 -0.333333  0.000000 -0.500000    0.00115741 134 t-inv F
  0.000000  0.333333 -0.500000    0.00115741 134 t-inv F
  0.000000 -0.333333  0.500000    0.00115741 134 t-inv F
 -0.416667  0.000000 -0.500000    0.00115741 135 t-inv F
  0.000000  0.416667 -0.500000    0.00115741 135 t-inv F
  0.000000 -0.416667  0.500000    0.00115741 135 t-inv F
  0.000000  0.500000 -0.500000    0.00115741 136 t-inv F
 -0.083333 -0.083333 -0.500000    0.00115741 137 t-inv F
 -0.166667 -0.083333 -0.500000    0.00115741 138 t-inv F
  0.083333  0.166667 -0.500000    0.00115741 138 t-inv F
 -0.083333 -0.166667  0.500000    0.00115741 138 t-inv F
 -0.250000 -0.083333 -0.500000    0.00115741 139 t-inv F
  0.083333  0.250000 -0.500000    0.00115741 139 t-inv F
 -0.083333 -0.250000  0.500000    0.00115741 139 t-inv F
 -0.333333 -0.083333 -0.500000    0.00115741 140 t-inv F
  0.083333  0.333333 -0.500000    0.00115741 140 t-inv F
 -0.083333 -0.333333  0.500000    0.00115741 140 t-inv F
 -0.416667 -0.083333 -0.500000    0.00115741 141 t-inv F
  0.083333  0.416667 -0.500000    0.00115741 141 t-inv F
 -0.083333 -0.416667  0.500000    0.00115741 141 t-inv F
 -0.500000 -0.083333 -0.500000    0.00115741 142 t-inv F
  0.083333  0.500000 -0.500000    0.00115741 142 t-inv F
 -0.083333 -0.500000  0.500000    0.00115741 142 t-inv F
  0.416667 -0.083333 -0.500000    0.00115741 143 t-inv F
  0.083333 -0.416667 -0.500000    0.00115741 143 t-inv F
 -0.083333  0.416667  0.500000    0.00115741 143 t-inv F
  0.333333 -0.083333 -0.500000    0.00115741 144 t-inv F
  0.083333 -0.333333 -0.500000    0.00115741 144 t-inv F
 -0.083333  0.333333  0.500000    0.00115741 144 t-inv F
  0.250000 -0.083333 -0.500000    0.00115741 145 t-inv F
  0.083333 -0.250000 -0.500000    0.00115741 145 t-inv F
 -0.083333  0.250000  0.500000    0.00115741 145 t-inv F
  0.166667 -0.083333 -0.500000    0.00115741 146 t-inv F
  0.083333 -0.166667 -0.500000    0.00115741 146 t-inv F
 -0.083333  0.166667  0.500000    0.00115741 146 t-inv F
  0.083333 -0.083333 -0.500000    0.00115741 147 t-inv F
 -0.166667 -0.166667 -0.500000    0.00115741 148 t-inv F
 -0.250000 -0.166667 -0.500000    0.00115741 149 t-inv F
  0.166667  0.250000 -0.500000    0.00115741 149 t-inv F
 -0.166667 -0.250000  0.500000    0.00115741 149 t-inv F
 -0.333333 -0.166667 -0.500000    0.00115741 150 t-inv F
  0.166667  0.333333 -0.500000    0.00115741 150 t-inv F
 -0.166667 -0.333333  0.500000    0.00115741 150 t-inv F
 -0.416667 -0.166667 -0.500000    0.00115741 151 t-inv F
  0.166667  0.416667 -0.500000    0.00115741 151 t-inv F
 -0.166667 -0.416667  0.500000    0.00115741 151 t-inv F
 -0.500000 -0.166667 -0.500000    0.00115741 152 t-inv F
  0.166667  0.500000 -0.500000    0.00115741 152 t-inv F
 -0.166667 -0.500000  0.500000    0.00115741 152 t-inv F
  0.416667 -0.166667 -0.500000    0.00115741 153 t-inv F
  0.166667 -0.416667 -0.500000    0.00115741 153 t-inv F
 -0.166667  0.416667  0.500000    0.00115741 153 t-inv F
  0.333333 -0.166667 -0.500000    0.00115741 154 t-inv F
  0.166667 -0.333333 -0.500000    0.00115741 154 t-inv F
 -0.166667  0.333333  0.500000    0.00115741 154 t-inv F
  0.250000 -0.166667 -0.500000    0.00115741 155 t-inv F
  0.166667 -0.250000 -0.500000    0.00115741 155 t-inv F
 -0.166667  0.250000  0.500000    0.00115741 155 t-inv F
  0.166667 -0.166667 -0.500000    0.00115741 156 t-inv F
 -0.250000 -0.250000 -0.500000    0.00115741 157 t-inv F
 -0.333333 -0.250000 -0.500000    0.00115741 158 t-inv F
  0.250000  0.333333 -0.500000    0.00115741 158 t-inv F
 -0.250000 -0.333333  0.500000    0.00115741 158 t-inv F
 -0.416667 -0.250000 -0.500000    0.00115741 159 t-inv F
  0.250000  0.416667 -0.500000    0.00115741 159 t-inv F
 -0.250000 -0.416667  0.500000    0.00115741 159 t-inv F
 -0.500000 -0.250000 -0.500000    0.00115741 160 t-inv F
  0.250000  0.500000 -0.500000    0.00115741 160 t-inv F
 -0.250000 -0.500000  0.500000    0.00115741 160 t-inv F
  0.416667 -0.250000 -0.500000    0.00115741 161 t-inv F
  0.250000 -0.416667 -0.500000    0.00115741 161 t-inv F
 -0.250000  0.416667  0.500000    0.00115741 161 t-inv F
  0.333333 -0.250000 -0.500000    0.00115741 162 t-inv F
  0.250000 -0.333333 -0.500000    0.00115741 162 t-inv F
 -0.250000  0.333333  0.500000    0.00115741 162 t-inv F
  0.250000 -0.250000 -0.500000    0.00115741 163 t-inv F
 -0.333333 -0.333333 -0.500000    0.00115741 164 t-inv F
 -0.416667 -0.333333 -0.500000    0.00115741 165 t-inv F
  0.333333  0.416667 -0.500000    0.00115741 165 t-inv F
 -0.333333 -0.416667  0.500000    0.00115741 165 t-inv F
 -0.500000 -0.333333 -0.500000    0.00115741 166 t-inv F
  0.333333  0.500000 -0.500000    0.00115741 166 t-inv F
 -0.333333 -0.500000  0.500000    0.00115741 166 t-inv F
  0.416667 -0.333333 -0.500000    0.00115741 167 t-inv F
  0.333333 -0.416667 -0.500000    0.00115741 167 t-inv F
 -0.333333  0.416667  0.500000    0.00115741 167 t-inv F
  0.333333 -0.333333 -0.500000    0.00115741 168 t-inv F
 -0.416667 -0.416667 -0.500000    0.00115741 169 t-inv F
 -0.500000 -0.416667 -0.500000    0.00115741 170 t-inv F
  0.416667  0.500000 -0.500000    0.00115741 170 t-inv F
 -0.416667 -0.500000  0.500000    0.00115741 170 t-inv F
  0.416667 -0.416667 -0.500000    0.00115741 171 t-inv F


--------------------------------------------------------------------------------------------------------




 Dimension of arrays:
   k-points           NKPTS =    373   k-points in BZ     NKDIM =   1065   number of bands    NBANDS=     18
   number of dos      NEDOS =    301   number of ions     NIONS =      6
   non local maximal  LDIM  =      6   non local SUM 2l+1 LMDIM =     18
   total plane-waves  NPLWV =  49152
   max r-space proj   IRMAX =      1   max aug-charges    IRDMAX= 274479
   dimension x,y,z NGX =    32 NGY =   32 NGZ =   48
   dimension x,y,z NGXF=    64 NGYF=   64 NGZF=   96
   support grid    NGXF=   128 NGYF=  128 NGZF=  192
   ions per type =               4   2
 NGX,Y,Z   is equivalent  to a cutoff of  12.92, 12.92, 13.95 a.u.
 NGXF,Y,Z  is equivalent  to a cutoff of  25.83, 25.83, 27.89 a.u.


 I would recommend the setting:
   dimension x,y,z NGX =    31 NGY =   31 NGZ =   43
 SYSTEM =  band                                    
 POSCAR =  Primitive Cell                          

 Startparameter for this run:
   NWRITE =      2    write-flag & timer
   PREC   = accura    normal or accurate (medium, high low for compatibility)
   ISTART =      1    job   : 0-new  1-cont  2-samecut
   ICHARG =      1    charge: 1-file 2-atom 10-const
   ISPIN  =      1    spin polarized calculation?
   LNONCOLLINEAR =      F non collinear calculations
   LSORBIT =      F    spin-orbit coupling
   INIWAV =      1    electr: 0-lowe 1-rand  2-diag
   LASPH  =      F    aspherical Exc in radial PAW
   METAGGA=      F    non-selfconsistent MetaGGA calc.

 Electronic Relaxation 1
   ENCUT  =  520.0 eV  38.22 Ry    6.18 a.u.   7.66  7.66 10.64*2*pi/ulx,y,z
   ENINI  =  520.0     initial cutoff
   ENAUG  =  400.0 eV  augmentation charge cutoff
   NELM   =    140;   NELMIN=  6; NELMDL=  0     # of ELM steps 
   EDIFF  = 0.1E-03   stopping-criterion for ELM
   LREAL  =      F    real-space projection
   NLSPLINE    = F    spline interpolate recip. space projectors
   LCOMPAT=      F    compatible to vasp.4.4
   GGA_COMPAT  = T    GGA compatible to vasp.4.4-vasp.4.6
   LMAXPAW     = -100 max onsite density
   LMAXMIX     =    2 max onsite mixed and CHGCAR
   VOSKOWN=      0    Vosko Wilk Nusair interpolation
   ROPT   =    0.00000   0.00000
 Ionic relaxation
   EDIFFG = -.1E-01   stopping-criterion for IOM
   NSW    =      0    number of steps for IOM
   NBLOCK =      1;   KBLOCK =      1    inner block; outer block 
   IBRION =     -1    ionic relax: 0-MD 1-quasi-New 2-CG
   NFREE  =      0    steps in history (QN), initial steepest desc. (CG)
   ISIF   =      2    stress and relaxation
   IWAVPR =     10    prediction:  0-non 1-charg 2-wave 3-comb
   ISYM   =      3    0-nonsym 1-usesym 2-fastsym
   LCORR  =      T    Harris-Foulkes like correction to forces

   POTIM  = 0.0500    time-step for ionic-motion
   TEIN   =    0.0    initial temperature
   TEBEG  =    0.0;   TEEND  =   0.0 temperature during run
   SMASS  =  -3.00    Nose mass-parameter (am)
   estimated Nose-frequenzy (Omega)   =  0.10E-29 period in steps =****** mass=  -0.388E-27a.u.
   SCALEE = 1.0000    scale energy and forces
   NPACO  =    256;   APACO  = 16.0  distance and # of slots for P.C.
   PSTRESS=    0.0 pullay stress

  Mass of Ions in am
   POMASS =   1.00 87.62
  Ionic Valenz
   ZVAL   =   1.00 10.00
  Atomic Wigner-Seitz radii
   RWIGS  =  -1.00 -1.00
  virtual crystal weights 
   VCA    =   1.00  1.00
   NELECT =      24.0000    total number of electrons
   NUPDOWN=      -1.0000    fix difference up-down

 DOS related values:
   EMIN   =  10.00;   EMAX   =-10.00  energy-range for DOS
   EFERMI =   0.00
   ISMEAR =     0;   SIGMA  =   0.05  broadening in eV -4-tet -1-fermi 0-gaus

 Electronic relaxation 2 (details)
   IALGO  =     53    algorithm
   LDIAG  =      T    sub-space diagonalisation (order eigenvalues)
   LSUBROT=      F    optimize rotation matrix (better conditioning)
   TURBO    =      0    0=normal 1=particle mesh
   IRESTART =      0    0=no restart 2=restart with 2 vectors
   NREBOOT  =      0    no. of reboots
   NMIN     =      0    reboot dimension
   EREF     =   0.00    reference energy to select bands
   IMIX   =      4    mixing-type and parameters
     AMIX     =   0.10;   BMIX     =  1.20
     AMIX_MAG =   0.40;   BMIX_MAG =  1.20
     AMIN     =   0.10
     WC   =   100.;   INIMIX=   1;  MIXPRE=   1;  MAXMIX= -45

 Intra band minimization:
   WEIMIN = 0.0000     energy-eigenvalue tresh-hold
   EBREAK =  0.14E-05  absolut break condition
   DEPER  =   0.30     relativ break condition  

   TIME   =   0.40     timestep for ELM

  volume/ion in A,a.u.               =      14.01        94.54
  Fermi-wavevector in a.u.,A,eV,Ry     =   1.078020  2.037163 15.811702  1.162127
  Thomas-Fermi vector in A             =   2.213948
 
 Write flags
   LWAVE  =      F    write WAVECAR
   LCHARG =      F    write CHGCAR
   LVTOT  =      F    write LOCPOT, total local potential
   LVHAR  =      F    write LOCPOT, Hartree potential only
   LELF   =      F    write electronic localiz. function (ELF)
   LORBIT =     11    0 simple, 1 ext, 2 COOP (PROOUT)


 Dipole corrections
   LMONO  =      F    monopole corrections only (constant potential shift)
   LDIPOL =      F    correct potential (dipole corrections)
   IDIPOL =      0    1-x, 2-y, 3-z, 4-all directions 
   EPSILON=  1.0000000 bulk dielectric constant

 Exchange correlation treatment:
   GGA     =    --    GGA type
   LEXCH   =     8    internal setting for exchange type
   VOSKOWN=      0    Vosko Wilk Nusair interpolation
[...]
      9      -3.8504      2.00000
     10      -3.8504      2.00000
     11       0.3580      2.00000
     12       0.3580      2.00000
     13       5.3628      0.00000
     14       5.3628      0.00000
     15       5.4140      0.00000
     16       5.4140      0.00000
     17       6.4187      0.00000
     18       6.4187      0.00000

 k-point   357 :      -0.1190    0.1190    0.5000
  band No.  band energies     occupation 
      1     -36.0143      2.00000
      2     -36.0143      2.00000
      3     -16.9754      2.00000
      4     -16.9754      2.00000
      5     -16.6246      2.00000
      6     -16.6246      2.00000
      7     -16.6197      2.00000
      8     -16.6197      2.00000
      9      -3.7798      2.00000
     10      -3.7798      2.00000
     11       0.2424      2.00000
     12       0.2424      2.00000
     13       5.4193      0.00000
     14       5.4193      0.00000
     15       5.4529      0.00000
     16       5.4529      0.00000
     17       6.4658      0.00000
     18       6.4658      0.00000

 k-point   358 :      -0.1429    0.1429    0.5000
  band No.  band energies     occupation 
      1     -36.0132      2.00000
      2     -36.0132      2.00000
      3     -16.9860      2.00000
      4     -16.9860      2.00000
      5     -16.6291      2.00000
      6     -16.6291      2.00000
      7     -16.6230      2.00000
      8     -16.6230      2.00000
      9      -3.6953      2.00000
     10      -3.6953      2.00000
     11       0.1136      2.00000
     12       0.1136      2.00000
     13       5.4652      0.00000
     14       5.4652      0.00000
     15       5.4861      0.00000
     16       5.4861      0.00000
     17       6.5474      0.00000
     18       6.5474      0.00000

 k-point   359 :      -0.1667    0.1667    0.5000
  band No.  band energies     occupation 
      1     -36.0119      2.00000
      2     -36.0119      2.00000
      3     -16.9984      2.00000
      4     -16.9984      2.00000
      5     -16.6336      2.00000
      6     -16.6336      2.00000
      7     -16.6266      2.00000
      8     -16.6266      2.00000
      9      -3.5983      2.00000
     10      -3.5983      2.00000
     11      -0.0241      2.00000
     12      -0.0241      2.00000
     13       5.4472      0.00000
     14       5.4472      0.00000
     15       5.5617      0.00000
     16       5.5617      0.00000
     17       6.6613      0.00000
     18       6.6613      0.00000

 k-point   360 :      -0.1905    0.1905    0.5000
  band No.  band energies     occupation 
      1     -36.0105      2.00000
      2     -36.0105      2.00000
      3     -17.0123      2.00000
      4     -17.0123      2.00000
      5     -16.6380      2.00000
      6     -16.6380      2.00000
      7     -16.6307      2.00000
      8     -16.6307      2.00000
      9      -3.4899      2.00000
     10      -3.4899      2.00000
     11      -0.1667      2.00000
     12      -0.1667      2.00000
     13       5.4028      0.00000
     14       5.4028      0.00000
     15       5.6446      0.00000
     16       5.6446      0.00000
     17       6.7974      0.00000
     18       6.7974      0.00000

 k-point   361 :      -0.2143    0.2143    0.5000
  band No.  band energies     occupation 
      1     -36.0090      2.00000
      2     -36.0090      2.00000
      3     -17.0276      2.00000
      4     -17.0276      2.00000
      5     -16.6421      2.00000
      6     -16.6421      2.00000
      7     -16.6349      2.00000
      8     -16.6349      2.00000
      9      -3.3718      2.00000
     10      -3.3718      2.00000
     11      -0.3109      2.00000
     12      -0.3109      2.00000
     13       5.3385      0.00000
     14       5.3385      0.00000
     15       5.7327      0.00000
     16       5.7327      0.00000
     17       6.9434      0.00000
     18       6.9434      0.00000

 k-point   362 :      -0.2381    0.2381    0.5000
  band No.  band energies     occupation 
      1     -36.0074      2.00000
      2     -36.0074      2.00000
      3     -17.0438      2.00000
      4     -17.0438      2.00000
      5     -16.6457      2.00000
      6     -16.6457      2.00000
      7     -16.6393      2.00000
      8     -16.6393      2.00000
      9      -3.2455      2.00000
     10      -3.2455      2.00000
     11      -0.4543      2.00000
     12      -0.4543      2.00000
     13       5.2601      0.00000
     14       5.2601      0.00000
     15       5.8235      0.00000
     16       5.8235      0.00000
     17       7.0890      0.00000
     18       7.0890      0.00000

 k-point   363 :      -0.2619    0.2619    0.5000
  band No.  band energies     occupation 
      1     -36.0059      2.00000
      2     -36.0059      2.00000
      3     -17.0606      2.00000
      4     -17.0606      2.00000
      5     -16.6489      2.00000
      6     -16.6489      2.00000
      7     -16.6438      2.00000
      8     -16.6438      2.00000
      9      -3.1129      2.00000
     10      -3.1129      2.00000
     11      -0.5950      2.00000
     12      -0.5950      2.00000
     13       5.1720      0.00000
     14       5.1720      0.00000
     15       5.9145      0.00000
     16       5.9145      0.00000
     17       7.2275      0.00000
     18       7.2275      0.00000

 k-point   364 :      -0.2857    0.2857    0.5000
  band No.  band energies     occupation 
      1     -36.0043      2.00000
      2     -36.0043      2.00000
      3     -17.0775      2.00000
      4     -17.0775      2.00000
      5     -16.6515      2.00000
      6     -16.6515      2.00000
      7     -16.6481      2.00000
      8     -16.6481      2.00000
      9      -2.9757      2.00000
     10      -2.9757      2.00000
     11      -0.7315      2.00000
     12      -0.7315      2.00000
     13       5.0781      0.00000
     14       5.0781      0.00000
     15       6.0032      0.00000
     16       6.0032      0.00000
     17       7.3568      0.00000
     18       7.3568      0.00000

 k-point   365 :      -0.3095    0.3095    0.5000
  band No.  band energies     occupation 
      1     -36.0028      2.00000
      2     -36.0028      2.00000
      3     -17.0941      2.00000
      4     -17.0941      2.00000
      5     -16.6537      2.00000
      6     -16.6537      2.00000
      7     -16.6524      2.00000
      8     -16.6524      2.00000
      9      -2.8359      2.00000
     10      -2.8359      2.00000
     11      -0.8630      2.00000
     12      -0.8630      2.00000
     13       4.9817      0.00000
     14       4.9817      0.00000
     15       6.0867      0.00000
     16       6.0867      0.00000
     17       7.4786      0.00000
     18       7.4786      0.00000

 k-point   366 :      -0.3333    0.3333    0.5000
  band No.  band energies     occupation 
      1     -36.0014      2.00000
      2     -36.0014      2.00000
      3     -17.1100      2.00000
      4     -17.1100      2.00000
      5     -16.6563      2.00000
      6     -16.6563      2.00000
      7     -16.6554      2.00000
      8     -16.6554      2.00000
      9      -2.6955      2.00000
     10      -2.6955      2.00000
     11      -0.9890      2.00000
     12      -0.9890      2.00000
     13       4.8859      0.00000
     14       4.8859      0.00000
     15       6.1629      0.00000
     16       6.1629      0.00000
     17       7.5969      0.00000
     18       7.5969      0.00000

 k-point   367 :      -0.3571    0.3571    0.5000
  band No.  band energies     occupation 
      1     -36.0001      2.00000
      2     -36.0001      2.00000
      3     -17.1247      2.00000
      4     -17.1247      2.00000
      5     -16.6600      2.00000
      6     -16.6600      2.00000
      7     -16.6568      2.00000
      8     -16.6568      2.00000
      9      -2.5562      2.00000
     10      -2.5562      2.00000
     11      -1.1096      2.00000
     12      -1.1096      2.00000
     13       4.7941      0.00000
     14       4.7941      0.00000
     15       6.2299      0.00000
     16       6.2299      0.00000
     17       7.7161      0.00000
     18       7.7161      0.00000

 k-point   368 :      -0.3810    0.3810    0.5000
  band No.  band energies     occupation 
      1     -35.9989      2.00000
      2     -35.9989      2.00000
      3     -17.1379      2.00000
      4     -17.1379      2.00000
      5     -16.6632      2.00000
      6     -16.6632      2.00000
      7     -16.6578      2.00000
      8     -16.6578      2.00000
      9      -2.4198      2.00000
     10      -2.4198      2.00000
     11      -1.2249      2.00000
     12      -1.2249      2.00000
     13       4.7095      0.00000
     14       4.7095      0.00000
     15       6.2866      0.00000
     16       6.2866      0.00000
     17       7.8398      0.00000
     18       7.8398      0.00000

 k-point   369 :      -0.4048    0.4048    0.5000
  band No.  band energies     occupation 
      1     -35.9980      2.00000
      2     -35.9980      2.00000
      3     -17.1491      2.00000
      4     -17.1491      2.00000
      5     -16.6660      2.00000
      6     -16.6660      2.00000
      7     -16.6585      2.00000
      8     -16.6585      2.00000
      9      -2.2880      2.00000
     10      -2.2880      2.00000
     11      -1.3356      2.00000
     12      -1.3356      2.00000
     13       4.6351      0.00000
     14       4.6351      0.00000
     15       6.3324      0.00000
     16       6.3324      0.00000
     17       7.9690      0.00000
     18       7.9690      0.00000

 k-point   370 :      -0.4286    0.4286    0.5000
  band No.  band energies     occupation 
      1     -35.9972      2.00000
      2     -35.9972      2.00000
      3     -17.1582      2.00000
      4     -17.1582      2.00000
      5     -16.6682      2.00000
      6     -16.6682      2.00000
      7     -16.6590      2.00000
      8     -16.6590      2.00000
      9      -2.1624      2.00000
     10      -2.1624      2.00000
     11      -1.4422      2.00000
     12      -1.4422      2.00000
     13       4.5739      0.00000
     14       4.5739      0.00000
     15       6.3674      0.00000
     16       6.3674      0.00000
     17       8.1012      0.00000
     18       8.1012      0.00000

 k-point   371 :      -0.4524    0.4524    0.5000
  band No.  band energies     occupation 
      1     -35.9966      2.00000
      2     -35.9966      2.00000
      3     -17.1648      2.00000
      4     -17.1648      2.00000
      5     -16.6698      2.00000
      6     -16.6698      2.00000
      7     -16.6593      2.00000
      8     -16.6593      2.00000
      9      -2.0454      2.00000
     10      -2.0454      2.00000
     11      -1.5441      2.00000
     12      -1.5441      2.00000
     13       4.5282      0.00000
     14       4.5282      0.00000
     15       6.3918      0.00000
     16       6.3918      0.00000
     17       8.2275      0.00000
     18       8.2275      0.00000

 k-point   372 :      -0.4762    0.4762    0.5000
  band No.  band energies     occupation 
      1     -35.9963      2.00000
      2     -35.9963      2.00000
      3     -17.1689      2.00000
      4     -17.1689      2.00000
      5     -16.6707      2.00000
      6     -16.6707      2.00000
      7     -16.6595      2.00000
      8     -16.6595      2.00000
      9      -1.9442      2.00000
     10      -1.9442      2.00000
     11      -1.6356      2.00000
     12      -1.6356      2.00000
     13       4.5000      0.00000
     14       4.5000      0.00000
     15       6.4063      0.00000
     16       6.4063      0.00000
     17       8.3268      0.00000
     18       8.3268      0.00000

 k-point   373 :      -0.5000    0.5000    0.5000
  band No.  band energies     occupation 
      1     -35.9961      2.00000
      2     -35.9961      2.00000
      3     -17.1703      2.00000
      4     -17.1703      2.00000
      5     -16.6711      2.00000
      6     -16.6711      2.00000
      7     -16.6596      2.00000
      8     -16.6596      2.00000
      9      -1.8930      2.00000
     10      -1.8930      2.00000
     11      -1.6834      2.00000
     12      -1.6834      2.00000
     13       4.4904      0.00000
     14       4.4904      0.00000
     15       6.4111      0.00000
     16       6.4111      0.00000
     17       8.3664      0.00000
     18       8.3664      0.00000


--------------------------------------------------------------------------------------------------------


 soft charge-density along one line, spin component           1
         0         1         2         3         4         5         6         7         8         9
 total charge-density along one line
 
 pseudopotential strength for first ion, spin component:           1
 -2.174  -3.714  -0.000  -0.000   0.000
 -3.714  -6.258  -0.000  -0.000  -0.000
 -0.000  -0.000  -0.382  -0.000   0.000
 -0.000  -0.000  -0.000  -0.383   0.000
  0.000  -0.000   0.000   0.000  -0.382
 total augmentation occupancy for first ion, spin component:           1
  2.682  -0.398  -0.000   0.000  -0.000
 -0.398   0.063   0.000  -0.000   0.000
 -0.000   0.000   0.001  -0.000  -0.000
  0.000  -0.000  -0.000   0.001  -0.000
 -0.000   0.000  -0.000  -0.000   0.001


------------------------ aborting loop because EDIFF is reached ----------------------------------------


 


 total charge     
 
# of ion     s       p       d       tot
----------------------------------------
  1        0.549   0.002   0.000   0.551
  2        0.549   0.002   0.000   0.551
  3        0.505   0.001   0.000   0.506
  4        0.505   0.001   0.000   0.506
  5        2.007   5.833   0.195   8.035
  6        2.007   5.833   0.195   8.035
------------------------------------------------
tot        6.121  11.672   0.389  18.183
 
    FORLOC:  cpu time    0.0055: real time    0.0076
    FORHF :  cpu time 9055.2529: real time 9059.5065
    FORNL :  cpu time    0.4806: real time    1.1215
    STRESS:  cpu time    1.8234: real time    1.8236
    FORCOR:  cpu time    0.1245: real time    0.1289
    OFIELD:  cpu time    0.0001: real time    0.0001

  FORCE on cell =-STRESS in cart. coord.  units (eV):
  Direction    XX          YY          ZZ          XY          YZ          ZX
  --------------------------------------------------------------------------------------
  Alpha Z   109.84119   109.84119   109.84119
  Ewald    -444.19357  -444.19446  -435.85447     0.00000    -0.00000     0.00000
  Hartree   106.40245   106.39783   103.79067     0.00000    -0.00000     0.00000
  E(xc)     -65.81407   -65.81423   -66.00387    -0.00000    -0.00000    -0.00000
  Local     102.72859   102.74013   105.30139    -0.00000     0.00001    -0.00000
  n-local  -109.53597  -109.53545  -108.70572    -1.26368    -0.11969    -0.03968
  augment     7.82214     7.82189     7.47870     0.00000     0.00000     0.00000
  Kinetic   311.25013   311.24654   302.89094     1.90134     0.09981     0.07999
  Fock            NaN         NaN         NaN         NaN         NaN         NaN
  -------------------------------------------------------------------------------------
  Total           NaN         NaN         NaN         NaN         NaN         NaN
  in kB           NaN         NaN         NaN         NaN         NaN         NaN
  external pressure =         NaN kB  Pullay stress =        0.00 kB


 VOLUME and BASIS-vectors are now :
 -----------------------------------------------------------------------------
  energy-cutoff  :      520.00
  volume of cell :       84.05
      direct lattice vectors                 reciprocal lattice vectors
     2.059310568 -3.566930430  0.000000000     0.242799706 -0.140176550  0.000000000
     2.059310568  3.566930430  0.000000000     0.242799706  0.140176550  0.000000000
     0.000000000  0.000000000  5.721484120     0.000000000  0.000000000  0.174779826

  length of vectors
     4.118707650  4.118707650  5.721484120     0.280358988  0.280358988  0.174779826


 FORCES acting on ions:
    Electron-Ion                     Ewald-Force                    Non-Local-Force
 -----------------------------------------------------------------------------------------------
   -.664E-06 0.688E-03 0.121E-06   0.500E-16 -.148E-02 -.111E-14   0.173E-17 -.128E-03 -.271E-19
   0.653E-06 -.688E-03 -.121E-06   -.771E-16 0.148E-02 0.438E-15   -.867E-18 0.128E-03 0.271E-19
   0.263E-07 -.129E-08 -.189E-09   -.501E-15 -.358E-15 -.355E-14   0.000E+00 0.000E+00 0.000E+00
   0.964E-08 0.515E-09 0.450E-09   0.267E-15 -.190E-15 0.355E-14   0.000E+00 0.000E+00 0.000E+00
   -.198E-06 0.829E-02 -.364E-05   0.206E-15 -.865E-02 -.649E-14   0.104E-16 -.761E-05 0.000E+00
   0.233E-07 -.829E-02 0.364E-05   -.135E-14 0.865E-02 0.649E-14   0.867E-17 0.761E-05 0.000E+00
 -----------------------------------------------------------------------------------------------
   -.150E-06 -.455E-07 0.738E-09   -.140E-14 -.111E-14 -.676E-15   0.199E-16 0.000E+00 0.000E+00
 
 
 POSITION                                       TOTAL-FORCE (eV/Angst)
 -----------------------------------------------------------------------------------
      2.05931     -2.37757      1.43037              NaN           NaN           NaN
      2.05931      2.37757      4.29111              NaN           NaN           NaN
      2.05931      0.00000      0.00000              NaN           NaN           NaN
      2.05931      0.00000      2.86074              NaN           NaN           NaN
      2.05931      2.37824      1.43037              NaN           NaN           NaN
      2.05931     -2.37824      4.29111              NaN           NaN           NaN
 -----------------------------------------------------------------------------------
    total drift:                                     NaN           NaN           NaN


--------------------------------------------------------------------------------------------------------



  FREE ENERGIE OF THE ION-ELECTRON SYSTEM (eV)
  ---------------------------------------------------
  free  energy   TOTEN  =       -22.17188262 eV

  energy  without entropy=      -22.17188262  energy(sigma->0) =      -22.17188262
 


--------------------------------------------------------------------------------------------------------


    POTLOK:  cpu time    0.4585: real time    0.4797


--------------------------------------------------------------------------------------------------------


     LOOP+:  cpu time41435.9874: real time41512.5230
    4ORBIT:  cpu time    0.0000: real time    0.0000
 


 total charge     
 
# of ion     s       p       d       tot
----------------------------------------
  1        0.549   0.002   0.000   0.551
  2        0.549   0.002   0.000   0.551
  3        0.505   0.001   0.000   0.506
  4        0.505   0.001   0.000   0.506
  5        2.007   5.833   0.195   8.035
  6        2.007   5.833   0.195   8.035
------------------------------------------------
tot        6.121  11.672   0.389  18.183
 

 total amount of memory used by VASP on root node    93097. kBytes
========================================================================

   base      :      30000. kBytes
   nonl-proj :      37416. kBytes
   fftplans  :       1684. kBytes
   grid      :        946. kBytes
   one-center:         15. kBytes
   HF        :         23. kBytes
   nonlr-proj:       3357. kBytes
   wavefun   :      19656. kBytes
 
  
  
 General timing and accounting informations for this job:
 ========================================================
  
                  Total CPU time used (sec):    41886.699
                            User time (sec):    41833.212
                          System time (sec):       53.486
                         Elapsed time (sec):    41965.855
  
                   Maximum memory used (kb):      365048.
                   Average memory used (kb):           0.
  
                          Minor page faults:      2907103
                          Major page faults:           82
                 Voluntary context switches:         7191
