 vasp.5.4.4.18Apr17-6-g9f103f2a35 (build Jan 10 2024 09:48:00) complex          
  
 executed on             LinuxIFC date 2024.04.16  22:18:38
 running on   64 total cores
 distrk:  each k-point on   64 cores,    1 groups
 distr:  one band on NCORES_PER_BAND=   8 cores,    8 groups


--------------------------------------------------------------------------------------------------------


 INCAR:
 POTCAR:    PAW_PBE N 08Apr2002                   
 POTCAR:    PAW_PBE Pr_3 07Sep2000                
 POTCAR:    PAW_PBE N 08Apr2002                   
   VRHFIN =N: s2p3                                                              
   LEXCH  = PE                                                                  
   EATOM  =   264.5486 eV,   19.4438 Ry                                         
                                                                                
   TITEL  = PAW_PBE N 08Apr2002                                                 
   LULTRA =        F    use ultrasoft PP ?                                      
   IUNSCR =        1    unscreen: 0-lin 1-nonlin 2-no                           
   RPACOR =    1.200    partial core radius                                     
   POMASS =   14.001; ZVAL   =    5.000    mass and valenz                      
   RCORE  =    1.500    outmost cutoff radius                                   
   RWIGS  =    1.400; RWIGS  =    0.741    wigner-seitz radius (au A)           
   ENMAX  =  400.000; ENMIN  =  300.000 eV                                      
   ICORE  =        2    local potential                                         
   LCOR   =        T    correct aug charges                                     
   LPAW   =        T    paw PP                                                  
   EAUG   =  627.112                                                            
   DEXC   =    0.000                                                            
   RMAX   =    1.529    core radius for proj-oper                               
   RAUG   =    1.300    factor for augmentation sphere                          
   RDEP   =    1.514    radius for radial grids                                 
   RDEPT  =    1.338    core radius for aug-charge                              
                                                                                
   Atomic configuration                                                         
    4 entries                                                                   
     n  l   j            E        occ.                                          
     1  0  0.50      -384.7179   2.0000                                         
     2  0  0.50       -18.5828   2.0000                                         
     2  1  0.50        -7.0898   3.0000                                         
     3  2  1.50        -6.8029   0.0000                                         
   Description                                                                  
     l       E           TYP  RCUT    TYP  RCUT                                 
     0    -18.5828119     23  1.200                                             
     0    -13.5018863     23  1.200                                             
     1     -7.0897853     23  1.500                                             
     1      9.5240782     23  1.500                                             
     2     -6.8029130      7  1.500                                             
  local pseudopotential read in
  partial core-charges read in
  partial kinetic energy density read in
  atomic valenz-charges read in
  non local Contribution for L=           0  read in
    real space projection operators read in
  non local Contribution for L=           0  read in
    real space projection operators read in
  non local Contribution for L=           1  read in
    real space projection operators read in
  non local Contribution for L=           1  read in
    real space projection operators read in
    PAW grid and wavefunctions read in
 
   number of l-projection  operators is LMAX  =           4
   number of lm-projection operators is LMMAX =           8
 
 POTCAR:    PAW_PBE Pr_3 07Sep2000                
   VRHFIN =Pr : [core=Xe4]                                                      
   LEXCH  = PE                                                                  
   EATOM  =   912.8502 eV,   67.0926 Ry                                         
                                                                                
   TITEL  = PAW_PBE Pr_3 07Sep2000                                              
   LULTRA =        F    use ultrasoft PP ?                                      
   IUNSCR =        1    unscreen: 0-lin 1-nonlin 2-no                           
   RPACOR =    2.400    partial core radius                                     
   POMASS =  140.907; ZVAL   =   11.000    mass and valenz                      
   RCORE  =    2.800    outmost cutoff radius                                   
   RWIGS  =    3.100; RWIGS  =    1.640    wigner-seitz radius (au A)           
   ENMAX  =  181.719; ENMIN  =  136.289 eV                                      
   RCLOC  =    2.419    cutoff for local pot                                    
   LCOR   =        T    correct aug charges                                     
   LPAW   =        T    paw PP                                                  
   EAUG   =  303.718                                                            
   DEXC   =    0.000                                                            
   RMAX   =    2.867    core radius for proj-oper                               
   RAUG   =    1.300    factor for augmentation sphere                          
   RDEP   =    2.816    radius for radial grids                                 
   RDEPT  =    2.395    core radius for aug-charge                              
                                                                                
   Atomic configuration                                                         
   14 entries                                                                   
     n  l   j            E        occ.                                          
     1  0  0.50    -41810.3934   2.0000                                         
     2  0  0.50     -6731.1418   2.0000                                         
     2  1  1.50     -6022.4876   6.0000                                         
     3  0  0.50     -1458.2043   2.0000                                         
     3  1  1.50     -1233.8862   6.0000                                         
     3  2  2.50      -919.2566  10.0000                                         
     4  0  0.50      -295.2681   2.0000                                         
     4  1  1.50      -221.8430   6.0000                                         
     4  2  2.50      -116.8418  10.0000                                         
     4  3  2.50        -6.2311   2.0000                                         
     5  0  0.50       -42.1589   2.0000                                         
     6  0  0.50        -3.8068   2.0000                                         
     5  1  1.50       -23.9655   6.0000                                         
     5  2  2.50        -3.0008   1.0000                                         
   Description                                                                  
     l       E           TYP  RCUT    TYP  RCUT                                 
     0    -42.1589422     23  2.800                                             
     0     -3.8068346     23  2.800                                             
     1    -23.9655307     23  2.800                                             
     1     13.6058260     23  2.800                                             
     2     -3.0008139     23  2.800                                             
     2     -0.1733532     23  2.800                                             
  local pseudopotential read in
  partial core-charges read in
  partial kinetic energy density read in
  atomic valenz-charges read in
  non local Contribution for L=           0  read in
    real space projection operators read in
  non local Contribution for L=           0  read in
    real space projection operators read in
  non local Contribution for L=           1  read in
    real space projection operators read in
  non local Contribution for L=           1  read in
    real space projection operators read in
  non local Contribution for L=           2  read in
    real space projection operators read in
  non local Contribution for L=           2  read in
    real space projection operators read in
    PAW grid and wavefunctions read in
 
   number of l-projection  operators is LMAX  =           6
   number of lm-projection operators is LMMAX =          18
 
  PAW_PBE N 08Apr2002                   :
 energy of atom  1       EATOM= -264.5486
 kinetic energy error for atom=    0.0125 (will be added to EATOM!!)
  PAW_PBE Pr_3 07Sep2000                :
 energy of atom  2       EATOM= -912.8502
 kinetic energy error for atom=    0.0006 (will be added to EATOM!!)
 
 
 POSCAR: N1 Pr1                                  
  positions in direct lattice
  velocities in cartesian coordinates
 exchange correlation table for  LEXCH =        8
   RHO(1)=    0.500       N(1)  =     2000
   RHO(2)=  100.500       N(2)  =     4000
 


--------------------------------------------------------------------------------------------------------


 ion  position               nearest neighbor table
   1  0.500  0.500  0.500-   2 2.74   2 2.74   2 2.74   2 2.74   2 2.74   2 2.74   2 2.74   2 2.74

   2  0.000  0.000  0.000-   1 2.74   1 2.74   1 2.74   1 2.74   1 2.74   1 2.74   1 2.74   1 2.74

 
  LATTYP: Found a simple cubic cell.
 ALAT       =     3.1596607142
  
  Lattice vectors:
  
 A1 = (   3.1596607142,   0.0000000000,   0.0000000000)
 A2 = (   0.0000000000,   3.1596607142,   0.0000000000)
 A3 = (   0.0000000000,   0.0000000000,   3.1596607142)


Analysis of symmetry for initial positions (statically):
=====================================================================
 Subroutine PRICEL returns:
 Original cell was already a primitive cell.
 

 Routine SETGRP: Setting up the symmetry group for a 
 simple cubic supercell.


 Subroutine GETGRP returns: Found 48 space group operations
 (whereof 48 operations were pure point group operations)
 out of a pool of 48 trial point group operations.


The static configuration has the point symmetry O_h .


Analysis of symmetry for dynamics (positions and initial velocities):
=====================================================================
 Subroutine PRICEL returns:
 Original cell was already a primitive cell.
 

 Routine SETGRP: Setting up the symmetry group for a 
 simple cubic supercell.


 Subroutine GETGRP returns: Found 48 space group operations
 (whereof 48 operations were pure point group operations)
 out of a pool of 48 trial point group operations.


The dynamic configuration has the point symmetry O_h .


 Subroutine INISYM returns: Found 48 space group operations
 (whereof 48 operations are pure point group operations),
 and found     1 'primitive' translations

 
 
 KPOINTS: 0.040   8   8   8   35  0.040  185    6 
  k-points in reciprocal lattice
Space group operators:
 irot       det(A)        alpha          n_x          n_y          n_z        tau_x        tau_y        tau_z
    1     1.000000     0.000000     1.000000     0.000000     0.000000     0.000000     0.000000     0.000000
    2    -1.000000     0.000000     1.000000     0.000000     0.000000     0.000000     0.000000     0.000000
    3     1.000000   120.000000    -0.577350    -0.577350    -0.577350     0.000000     0.000000     0.000000
    4    -1.000000   120.000000    -0.577350    -0.577350    -0.577350     0.000000     0.000000     0.000000
    5     1.000000   120.000000     0.577350     0.577350     0.577350     0.000000     0.000000     0.000000
    6    -1.000000   120.000000     0.577350     0.577350     0.577350     0.000000     0.000000     0.000000
    7     1.000000    90.000000     0.000000     0.000000    -1.000000     0.000000     0.000000     0.000000
    8    -1.000000    90.000000     0.000000     0.000000    -1.000000     0.000000     0.000000     0.000000
    9     1.000000   180.000000     0.000000     0.707107     0.707107     0.000000     0.000000     0.000000
   10    -1.000000   180.000000     0.000000     0.707107     0.707107     0.000000     0.000000     0.000000
   11     1.000000    90.000000     0.000000     1.000000     0.000000     0.000000     0.000000     0.000000
   12    -1.000000    90.000000     0.000000     1.000000     0.000000     0.000000     0.000000     0.000000
   13     1.000000   180.000000     0.000000     0.000000     1.000000     0.000000     0.000000     0.000000
   14    -1.000000   180.000000     0.000000     0.000000     1.000000     0.000000     0.000000     0.000000
   15     1.000000   120.000000    -0.577350     0.577350     0.577350     0.000000     0.000000     0.000000
   16    -1.000000   120.000000    -0.577350     0.577350     0.577350     0.000000     0.000000     0.000000
   17     1.000000   120.000000    -0.577350     0.577350    -0.577350     0.000000     0.000000     0.000000
   18    -1.000000   120.000000    -0.577350     0.577350    -0.577350     0.000000     0.000000     0.000000
   19     1.000000    90.000000     0.000000     0.000000     1.000000     0.000000     0.000000     0.000000
   20    -1.000000    90.000000     0.000000     0.000000     1.000000     0.000000     0.000000     0.000000
   21     1.000000    90.000000    -1.000000     0.000000     0.000000     0.000000     0.000000     0.000000
   22    -1.000000    90.000000    -1.000000     0.000000     0.000000     0.000000     0.000000     0.000000
   23     1.000000   180.000000     0.707107     0.000000     0.707107     0.000000     0.000000     0.000000
   24    -1.000000   180.000000     0.707107     0.000000     0.707107     0.000000     0.000000     0.000000
   25     1.000000   120.000000     0.577350    -0.577350     0.577350     0.000000     0.000000     0.000000
   26    -1.000000   120.000000     0.577350    -0.577350     0.577350     0.000000     0.000000     0.000000
   27     1.000000   120.000000    -0.577350    -0.577350     0.577350     0.000000     0.000000     0.000000
   28    -1.000000   120.000000    -0.577350    -0.577350     0.577350     0.000000     0.000000     0.000000
   29     1.000000   180.000000     1.000000     0.000000     0.000000     0.000000     0.000000     0.000000
   30    -1.000000   180.000000     1.000000     0.000000     0.000000     0.000000     0.000000     0.000000
   31     1.000000    90.000000     0.000000    -1.000000     0.000000     0.000000     0.000000     0.000000
   32    -1.000000    90.000000     0.000000    -1.000000     0.000000     0.000000     0.000000     0.000000
   33     1.000000   180.000000     0.707107     0.707107     0.000000     0.000000     0.000000     0.000000
   34    -1.000000   180.000000     0.707107     0.707107     0.000000     0.000000     0.000000     0.000000
   35     1.000000    90.000000     1.000000     0.000000     0.000000     0.000000     0.000000     0.000000
   36    -1.000000    90.000000     1.000000     0.000000     0.000000     0.000000     0.000000     0.000000
   37     1.000000   120.000000     0.577350    -0.577350    -0.577350     0.000000     0.000000     0.000000
   38    -1.000000   120.000000     0.577350    -0.577350    -0.577350     0.000000     0.000000     0.000000
   39     1.000000   180.000000     0.000000     1.000000     0.000000     0.000000     0.000000     0.000000
   40    -1.000000   180.000000     0.000000     1.000000     0.000000     0.000000     0.000000     0.000000
   41     1.000000   120.000000     0.577350     0.577350    -0.577350     0.000000     0.000000     0.000000
   42    -1.000000   120.000000     0.577350     0.577350    -0.577350     0.000000     0.000000     0.000000
   43     1.000000   180.000000     0.000000    -0.707107     0.707107     0.000000     0.000000     0.000000
   44    -1.000000   180.000000     0.000000    -0.707107     0.707107     0.000000     0.000000     0.000000
   45     1.000000   180.000000     0.707107    -0.707107     0.000000     0.000000     0.000000     0.000000
   46    -1.000000   180.000000     0.707107    -0.707107     0.000000     0.000000     0.000000     0.000000
   47     1.000000   180.000000     0.707107     0.000000    -0.707107     0.000000     0.000000     0.000000
   48    -1.000000   180.000000     0.707107     0.000000    -0.707107     0.000000     0.000000     0.000000

 ----------------------------------------------------------------------------- 
|                                                                             |
|           W    W    AA    RRRRR   N    N  II  N    N   GGGG   !!!           |
|           W    W   A  A   R    R  NN   N  II  NN   N  G    G  !!!           |
|           W    W  A    A  R    R  N N  N  II  N N  N  G       !!!           |
|           W WW W  AAAAAA  RRRRR   N  N N  II  N  N N  G  GGG   !            |
|           WW  WW  A    A  R   R   N   NN  II  N   NN  G    G                |
|           W    W  A    A  R    R  N    N  II  N    N   GGGG   !!!           |
|                                                                             |
|      Your generating k-point grid is not commensurate to the symmetry       |
|      of the lattice.  This can cause   slow convergence with respect        |
|      to k-points for HF type calculations                                   |
|      suggested SOLUTIONS:                                                   |
|       ) if not already the case, use automatic k-point generation           |
|       ) shift your grid to Gamma (G) (e.g. required for hex or fcc lattice) |
|                                                                             |
 ----------------------------------------------------------------------------- 

 
 Subroutine IBZKPT_HF returns following result:
 ==============================================
 
 Found    697 k-points in 1st BZ
 the following    697 k-points will be used (e.g. in the exchange kernel)
 Following reciprocal coordinates:   # in IRBZ
  0.000000  0.000000  0.000000    0.00195312   1 t-inv F
  0.125000  0.000000  0.000000    0.00195312   2 t-inv F
  0.250000  0.000000  0.000000    0.00195312   3 t-inv F
  0.375000  0.000000  0.000000    0.00195312   4 t-inv F
  0.500000  0.000000  0.000000    0.00195312   5 t-inv F
  0.125000  0.125000  0.000000    0.00195312   6 t-inv F
  0.250000  0.125000  0.000000    0.00195312   7 t-inv F
  0.375000  0.125000  0.000000    0.00195312   8 t-inv F
  0.500000  0.125000  0.000000    0.00195312   9 t-inv F
  0.250000  0.250000  0.000000    0.00195312  10 t-inv F
  0.375000  0.250000  0.000000    0.00195312  11 t-inv F
  0.500000  0.250000  0.000000    0.00195312  12 t-inv F
  0.375000  0.375000  0.000000    0.00195312  13 t-inv F
  0.500000  0.375000  0.000000    0.00195312  14 t-inv F
  0.500000  0.500000  0.000000    0.00195312  15 t-inv F
  0.125000  0.125000  0.125000    0.00195312  16 t-inv F
  0.250000  0.125000  0.125000    0.00195312  17 t-inv F
  0.375000  0.125000  0.125000    0.00195312  18 t-inv F
  0.500000  0.125000  0.125000    0.00195312  19 t-inv F
  0.250000  0.250000  0.125000    0.00195312  20 t-inv F
  0.375000  0.250000  0.125000    0.00195312  21 t-inv F
  0.500000  0.250000  0.125000    0.00195312  22 t-inv F
  0.375000  0.375000  0.125000    0.00195312  23 t-inv F
  0.500000  0.375000  0.125000    0.00195312  24 t-inv F
  0.500000  0.500000  0.125000    0.00195312  25 t-inv F
  0.250000  0.250000  0.250000    0.00195312  26 t-inv F
  0.375000  0.250000  0.250000    0.00195312  27 t-inv F
  0.500000  0.250000  0.250000    0.00195312  28 t-inv F
  0.375000  0.375000  0.250000    0.00195312  29 t-inv F
  0.500000  0.375000  0.250000    0.00195312  30 t-inv F
  0.500000  0.500000  0.250000    0.00195312  31 t-inv F
  0.375000  0.375000  0.375000    0.00195312  32 t-inv F
  0.500000  0.375000  0.375000    0.00195312  33 t-inv F
  0.500000  0.500000  0.375000    0.00195312  34 t-inv F
  0.500000  0.500000  0.500000    0.00195312  35 t-inv F
  0.000000  0.000000  0.000000    0.00000000  36 t-inv F
  0.000000  0.021739  0.000000    0.00000000  37 t-inv F
  0.000000  0.043478  0.000000    0.00000000  38 t-inv F
  0.000000  0.065217  0.000000    0.00000000  39 t-inv F
  0.000000  0.086957  0.000000    0.00000000  40 t-inv F
  0.000000  0.108696  0.000000    0.00000000  41 t-inv F
  0.000000  0.130435  0.000000    0.00000000  42 t-inv F
  0.000000  0.152174  0.000000    0.00000000  43 t-inv F
  0.000000  0.173913  0.000000    0.00000000  44 t-inv F
  0.000000  0.195652  0.000000    0.00000000  45 t-inv F
  0.000000  0.217391  0.000000    0.00000000  46 t-inv F
  0.000000  0.239130  0.000000    0.00000000  47 t-inv F
  0.000000  0.260870  0.000000    0.00000000  48 t-inv F
  0.000000  0.282609  0.000000    0.00000000  49 t-inv F
  0.000000  0.304348  0.000000    0.00000000  50 t-inv F
  0.000000  0.326087  0.000000    0.00000000  51 t-inv F
  0.000000  0.347826  0.000000    0.00000000  52 t-inv F
  0.000000  0.369565  0.000000    0.00000000  53 t-inv F
  0.000000  0.391304  0.000000    0.00000000  54 t-inv F
  0.000000  0.413043  0.000000    0.00000000  55 t-inv F
  0.000000  0.434783  0.000000    0.00000000  56 t-inv F
  0.000000  0.456522  0.000000    0.00000000  57 t-inv F
  0.000000  0.478261  0.000000    0.00000000  58 t-inv F
  0.000000  0.500000  0.000000    0.00000000  59 t-inv F
  0.000000  0.500000  0.000000    0.00000000  60 t-inv F
  0.021739  0.500000  0.000000    0.00000000  61 t-inv F
  0.043478  0.500000  0.000000    0.00000000  62 t-inv F
  0.065217  0.500000  0.000000    0.00000000  63 t-inv F
  0.086957  0.500000  0.000000    0.00000000  64 t-inv F
  0.108696  0.500000  0.000000    0.00000000  65 t-inv F
  0.130435  0.500000  0.000000    0.00000000  66 t-inv F
  0.152174  0.500000  0.000000    0.00000000  67 t-inv F
  0.173913  0.500000  0.000000    0.00000000  68 t-inv F
  0.195652  0.500000  0.000000    0.00000000  69 t-inv F
  0.217391  0.500000  0.000000    0.00000000  70 t-inv F
  0.239130  0.500000  0.000000    0.00000000  71 t-inv F
  0.260870  0.500000  0.000000    0.00000000  72 t-inv F
  0.282609  0.500000  0.000000    0.00000000  73 t-inv F
  0.304348  0.500000  0.000000    0.00000000  74 t-inv F
  0.326087  0.500000  0.000000    0.00000000  75 t-inv F
  0.347826  0.500000  0.000000    0.00000000  76 t-inv F
  0.369565  0.500000  0.000000    0.00000000  77 t-inv F
  0.391304  0.500000  0.000000    0.00000000  78 t-inv F
  0.413043  0.500000  0.000000    0.00000000  79 t-inv F
  0.434783  0.500000  0.000000    0.00000000  80 t-inv F
  0.456522  0.500000  0.000000    0.00000000  81 t-inv F
  0.478261  0.500000  0.000000    0.00000000  82 t-inv F
  0.500000  0.500000  0.000000    0.00000000  83 t-inv F
  0.500000  0.500000  0.000000    0.00000000  84 t-inv F
  0.485294  0.485294  0.000000    0.00000000  85 t-inv F
  0.470588  0.470588  0.000000    0.00000000  86 t-inv F
  0.455882  0.455882  0.000000    0.00000000  87 t-inv F
  0.441176  0.441176  0.000000    0.00000000  88 t-inv F
  0.426471  0.426471  0.000000    0.00000000  89 t-inv F
  0.411765  0.411765  0.000000    0.00000000  90 t-inv F
  0.397059  0.397059  0.000000    0.00000000  91 t-inv F
  0.382353  0.382353  0.000000    0.00000000  92 t-inv F
  0.367647  0.367647  0.000000    0.00000000  93 t-inv F
  0.352941  0.352941  0.000000    0.00000000  94 t-inv F
  0.338235  0.338235  0.000000    0.00000000  95 t-inv F
  0.323529  0.323529  0.000000    0.00000000  96 t-inv F
  0.308824  0.308824  0.000000    0.00000000  97 t-inv F
  0.294118  0.294118  0.000000    0.00000000  98 t-inv F
  0.279412  0.279412  0.000000    0.00000000  99 t-inv F
  0.264706  0.264706  0.000000    0.00000000 100 t-inv F
  0.250000  0.250000  0.000000    0.00000000 101 t-inv F
  0.235294  0.235294  0.000000    0.00000000 102 t-inv F
  0.220588  0.220588  0.000000    0.00000000 103 t-inv F
  0.205882  0.205882  0.000000    0.00000000 104 t-inv F
  0.191176  0.191176  0.000000    0.00000000 105 t-inv F
  0.176471  0.176471  0.000000    0.00000000 106 t-inv F
  0.161765  0.161765  0.000000    0.00000000 107 t-inv F
  0.147059  0.147059  0.000000    0.00000000 108 t-inv F
  0.132353  0.132353  0.000000    0.00000000 109 t-inv F
  0.117647  0.117647  0.000000    0.00000000 110 t-inv F
  0.102941  0.102941  0.000000    0.00000000 111 t-inv F
  0.088235  0.088235  0.000000    0.00000000 112 t-inv F
  0.073529  0.073529  0.000000    0.00000000 113 t-inv F
  0.058824  0.058824  0.000000    0.00000000 114 t-inv F
  0.044118  0.044118  0.000000    0.00000000 115 t-inv F
  0.029412  0.029412  0.000000    0.00000000 116 t-inv F
  0.014706  0.014706  0.000000    0.00000000 117 t-inv F
  0.000000  0.000000  0.000000    0.00000000 118 t-inv F
  0.000000  0.000000  0.000000    0.00000000 119 t-inv F
  0.011905  0.011905  0.011905    0.00000000 120 t-inv F
  0.023810  0.023810  0.023810    0.00000000 121 t-inv F
  0.035714  0.035714  0.035714    0.00000000 122 t-inv F
  0.047619  0.047619  0.047619    0.00000000 123 t-inv F
  0.059524  0.059524  0.059524    0.00000000 124 t-inv F
  0.071429  0.071429  0.071429    0.00000000 125 t-inv F
  0.083333  0.083333  0.083333    0.00000000 126 t-inv F
  0.095238  0.095238  0.095238    0.00000000 127 t-inv F
  0.107143  0.107143  0.107143    0.00000000 128 t-inv F
  0.119048  0.119048  0.119048    0.00000000 129 t-inv F
  0.130952  0.130952  0.130952    0.00000000 130 t-inv F
  0.142857  0.142857  0.142857    0.00000000 131 t-inv F
  0.154762  0.154762  0.154762    0.00000000 132 t-inv F
  0.166667  0.166667  0.166667    0.00000000 133 t-inv F
  0.178571  0.178571  0.178571    0.00000000 134 t-inv F
  0.190476  0.190476  0.190476    0.00000000 135 t-inv F
  0.202381  0.202381  0.202381    0.00000000 136 t-inv F
  0.214286  0.214286  0.214286    0.00000000 137 t-inv F
  0.226190  0.226190  0.226190    0.00000000 138 t-inv F
  0.238095  0.238095  0.238095    0.00000000 139 t-inv F
  0.250000  0.250000  0.250000    0.00000000 140 t-inv F
  0.261905  0.261905  0.261905    0.00000000 141 t-inv F
  0.273810  0.273810  0.273810    0.00000000 142 t-inv F
  0.285714  0.285714  0.285714    0.00000000 143 t-inv F
  0.297619  0.297619  0.297619    0.00000000 144 t-inv F
  0.309524  0.309524  0.309524    0.00000000 145 t-inv F
  0.321429  0.321429  0.321429    0.00000000 146 t-inv F
  0.333333  0.333333  0.333333    0.00000000 147 t-inv F
  0.345238  0.345238  0.345238    0.00000000 148 t-inv F
  0.357143  0.357143  0.357143    0.00000000 149 t-inv F
  0.369048  0.369048  0.369048    0.00000000 150 t-inv F
  0.380952  0.380952  0.380952    0.00000000 151 t-inv F
  0.392857  0.392857  0.392857    0.00000000 152 t-inv F
  0.404762  0.404762  0.404762    0.00000000 153 t-inv F
  0.416667  0.416667  0.416667    0.00000000 154 t-inv F
  0.428571  0.428571  0.428571    0.00000000 155 t-inv F
  0.440476  0.440476  0.440476    0.00000000 156 t-inv F
  0.452381  0.452381  0.452381    0.00000000 157 t-inv F
  0.464286  0.464286  0.464286    0.00000000 158 t-inv F
  0.476190  0.476190  0.476190    0.00000000 159 t-inv F
  0.488095  0.488095  0.488095    0.00000000 160 t-inv F
  0.500000  0.500000  0.500000    0.00000000 161 t-inv F
  0.500000  0.500000  0.500000    0.00000000 162 t-inv F
  0.485294  0.500000  0.485294    0.00000000 163 t-inv F
  0.470588  0.500000  0.470588    0.00000000 164 t-inv F
  0.455882  0.500000  0.455882    0.00000000 165 t-inv F
  0.441176  0.500000  0.441176    0.00000000 166 t-inv F
  0.426471  0.500000  0.426471    0.00000000 167 t-inv F
  0.411765  0.500000  0.411765    0.00000000 168 t-inv F
  0.397059  0.500000  0.397059    0.00000000 169 t-inv F
  0.382353  0.500000  0.382353    0.00000000 170 t-inv F
  0.367647  0.500000  0.367647    0.00000000 171 t-inv F
  0.352941  0.500000  0.352941    0.00000000 172 t-inv F
  0.338235  0.500000  0.338235    0.00000000 173 t-inv F
  0.323529  0.500000  0.323529    0.00000000 174 t-inv F
  0.308824  0.500000  0.308824    0.00000000 175 t-inv F
  0.294118  0.500000  0.294118    0.00000000 176 t-inv F
  0.279412  0.500000  0.279412    0.00000000 177 t-inv F
  0.264706  0.500000  0.264706    0.00000000 178 t-inv F
  0.250000  0.500000  0.250000    0.00000000 179 t-inv F
  0.235294  0.500000  0.235294    0.00000000 180 t-inv F
  0.220588  0.500000  0.220588    0.00000000 181 t-inv F
  0.205882  0.500000  0.205882    0.00000000 182 t-inv F
  0.191176  0.500000  0.191176    0.00000000 183 t-inv F
  0.176471  0.500000  0.176471    0.00000000 184 t-inv F
  0.161765  0.500000  0.161765    0.00000000 185 t-inv F
  0.147059  0.500000  0.147059    0.00000000 186 t-inv F
  0.132353  0.500000  0.132353    0.00000000 187 t-inv F
  0.117647  0.500000  0.117647    0.00000000 188 t-inv F
  0.102941  0.500000  0.102941    0.00000000 189 t-inv F
  0.088235  0.500000  0.088235    0.00000000 190 t-inv F
  0.073529  0.500000  0.073529    0.00000000 191 t-inv F
  0.058824  0.500000  0.058824    0.00000000 192 t-inv F
  0.044118  0.500000  0.044118    0.00000000 193 t-inv F
  0.029412  0.500000  0.029412    0.00000000 194 t-inv F
  0.014706  0.500000  0.014706    0.00000000 195 t-inv F
  0.000000  0.500000  0.000000    0.00000000 196 t-inv F
  0.500000  0.500000  0.500000    0.00000000 197 t-inv F
  0.500000  0.500000  0.478261    0.00000000 198 t-inv F
  0.500000  0.500000  0.456522    0.00000000 199 t-inv F
  0.500000  0.500000  0.434783    0.00000000 200 t-inv F
  0.500000  0.500000  0.413043    0.00000000 201 t-inv F
  0.500000  0.500000  0.391304    0.00000000 202 t-inv F
  0.500000  0.500000  0.369565    0.00000000 203 t-inv F
  0.500000  0.500000  0.347826    0.00000000 204 t-inv F
  0.500000  0.500000  0.326087    0.00000000 205 t-inv F
  0.500000  0.500000  0.304348    0.00000000 206 t-inv F
  0.500000  0.500000  0.282609    0.00000000 207 t-inv F
  0.500000  0.500000  0.260870    0.00000000 208 t-inv F
  0.500000  0.500000  0.239130    0.00000000 209 t-inv F
  0.500000  0.500000  0.217391    0.00000000 210 t-inv F
  0.500000  0.500000  0.195652    0.00000000 211 t-inv F
  0.500000  0.500000  0.173913    0.00000000 212 t-inv F
  0.500000  0.500000  0.152174    0.00000000 213 t-inv F
  0.500000  0.500000  0.130435    0.00000000 214 t-inv F
  0.500000  0.500000  0.108696    0.00000000 215 t-inv F
  0.500000  0.500000  0.086957    0.00000000 216 t-inv F
  0.500000  0.500000  0.065217    0.00000000 217 t-inv F
  0.500000  0.500000  0.043478    0.00000000 218 t-inv F
  0.500000  0.500000  0.021739    0.00000000 219 t-inv F
  0.500000  0.500000  0.000000    0.00000000 220 t-inv F
 -0.125000  0.000000  0.000000    0.00195312   2 t-inv F
  0.000000  0.125000  0.000000    0.00195312   2 t-inv F
  0.000000 -0.125000  0.000000    0.00195312   2 t-inv F
  0.000000  0.000000  0.125000    0.00195312   2 t-inv F
  0.000000  0.000000 -0.125000    0.00195312   2 t-inv F
 -0.250000  0.000000  0.000000    0.00195312   3 t-inv F
  0.000000  0.250000  0.000000    0.00195312   3 t-inv F
  0.000000 -0.250000  0.000000    0.00195312   3 t-inv F
  0.000000  0.000000  0.250000    0.00195312   3 t-inv F
  0.000000  0.000000 -0.250000    0.00195312   3 t-inv F
 -0.375000  0.000000  0.000000    0.00195312   4 t-inv F
  0.000000  0.375000  0.000000    0.00195312   4 t-inv F
  0.000000 -0.375000  0.000000    0.00195312   4 t-inv F
  0.000000  0.000000  0.375000    0.00195312   4 t-inv F
  0.000000  0.000000 -0.375000    0.00195312   4 t-inv F
  0.000000  0.500000  0.000000    0.00195312   5 t-inv F
  0.000000  0.000000  0.500000    0.00195312   5 t-inv F
 -0.125000 -0.125000  0.000000    0.00195312   6 t-inv F
  0.000000  0.125000  0.125000    0.00195312   6 t-inv F
  0.000000 -0.125000 -0.125000    0.00195312   6 t-inv F
  0.125000  0.000000  0.125000    0.00195312   6 t-inv F
 -0.125000  0.000000 -0.125000    0.00195312   6 t-inv F
 -0.125000  0.125000  0.000000    0.00195312   6 t-inv F
  0.125000 -0.125000  0.000000    0.00195312   6 t-inv F
 -0.125000  0.000000  0.125000    0.00195312   6 t-inv F
  0.125000  0.000000 -0.125000    0.00195312   6 t-inv F
  0.000000 -0.125000  0.125000    0.00195312   6 t-inv F
  0.000000  0.125000 -0.125000    0.00195312   6 t-inv F
 -0.250000 -0.125000  0.000000    0.00195312   7 t-inv F
  0.000000  0.250000  0.125000    0.00195312   7 t-inv F
  0.000000 -0.250000 -0.125000    0.00195312   7 t-inv F
  0.125000  0.000000  0.250000    0.00195312   7 t-inv F
 -0.125000  0.000000 -0.250000    0.00195312   7 t-inv F
 -0.125000  0.250000  0.000000    0.00195312   7 t-inv F
  0.125000 -0.250000  0.000000    0.00195312   7 t-inv F
 -0.250000  0.000000  0.125000    0.00195312   7 t-inv F
  0.250000  0.000000 -0.125000    0.00195312   7 t-inv F
  0.000000  0.125000  0.250000    0.00195312   7 t-inv F
  0.000000 -0.125000 -0.250000    0.00195312   7 t-inv F
  0.000000 -0.250000  0.125000    0.00195312   7 t-inv F
  0.000000  0.250000 -0.125000    0.00195312   7 t-inv F
 -0.125000  0.000000  0.250000    0.00195312   7 t-inv F
  0.125000  0.000000 -0.250000    0.00195312   7 t-inv F
  0.250000  0.000000  0.125000    0.00195312   7 t-inv F
 -0.250000  0.000000 -0.125000    0.00195312   7 t-inv F
  0.000000 -0.125000  0.250000    0.00195312   7 t-inv F
  0.000000  0.125000 -0.250000    0.00195312   7 t-inv F
  0.250000 -0.125000  0.000000    0.00195312   7 t-inv F
 -0.250000  0.125000  0.000000    0.00195312   7 t-inv F
  0.125000  0.250000  0.000000    0.00195312   7 t-inv F
 -0.125000 -0.250000  0.000000    0.00195312   7 t-inv F
 -0.375000 -0.125000  0.000000    0.00195312   8 t-inv F
  0.000000  0.375000  0.125000    0.00195312   8 t-inv F
  0.000000 -0.375000 -0.125000    0.00195312   8 t-inv F
  0.125000  0.000000  0.375000    0.00195312   8 t-inv F
 -0.125000  0.000000 -0.375000    0.00195312   8 t-inv F
 -0.125000  0.375000  0.000000    0.00195312   8 t-inv F
  0.125000 -0.375000  0.000000    0.00195312   8 t-inv F
 -0.375000  0.000000  0.125000    0.00195312   8 t-inv F
  0.375000  0.000000 -0.125000    0.00195312   8 t-inv F
  0.000000  0.125000  0.375000    0.00195312   8 t-inv F
  0.000000 -0.125000 -0.375000    0.00195312   8 t-inv F
  0.000000 -0.375000  0.125000    0.00195312   8 t-inv F
  0.000000  0.375000 -0.125000    0.00195312   8 t-inv F
 -0.125000  0.000000  0.375000    0.00195312   8 t-inv F
  0.125000  0.000000 -0.375000    0.00195312   8 t-inv F
  0.375000  0.000000  0.125000    0.00195312   8 t-inv F
 -0.375000  0.000000 -0.125000    0.00195312   8 t-inv F
  0.000000 -0.125000  0.375000    0.00195312   8 t-inv F
  0.000000  0.125000 -0.375000    0.00195312   8 t-inv F
  0.375000 -0.125000  0.000000    0.00195312   8 t-inv F
 -0.375000  0.125000  0.000000    0.00195312   8 t-inv F
  0.125000  0.375000  0.000000    0.00195312   8 t-inv F
 -0.125000 -0.375000  0.000000    0.00195312   8 t-inv F
 -0.500000 -0.125000  0.000000    0.00195312   9 t-inv F
  0.000000  0.500000  0.125000    0.00195312   9 t-inv F
  0.000000 -0.500000 -0.125000    0.00195312   9 t-inv F
  0.125000  0.000000  0.500000    0.00195312   9 t-inv F
 -0.125000  0.000000 -0.500000    0.00195312   9 t-inv F
 -0.125000  0.500000  0.000000    0.00195312   9 t-inv F
  0.125000 -0.500000  0.000000    0.00195312   9 t-inv F
 -0.500000  0.000000  0.125000    0.00195312   9 t-inv F
  0.500000  0.000000 -0.125000    0.00195312   9 t-inv F
  0.000000  0.125000  0.500000    0.00195312   9 t-inv F
  0.000000 -0.125000 -0.500000    0.00195312   9 t-inv F
 -0.250000 -0.250000  0.000000    0.00195312  10 t-inv F
  0.000000  0.250000  0.250000    0.00195312  10 t-inv F
  0.000000 -0.250000 -0.250000    0.00195312  10 t-inv F
  0.250000  0.000000  0.250000    0.00195312  10 t-inv F
 -0.250000  0.000000 -0.250000    0.00195312  10 t-inv F
 -0.250000  0.250000  0.000000    0.00195312  10 t-inv F
  0.250000 -0.250000  0.000000    0.00195312  10 t-inv F
 -0.250000  0.000000  0.250000    0.00195312  10 t-inv F
  0.250000  0.000000 -0.250000    0.00195312  10 t-inv F
  0.000000 -0.250000  0.250000    0.00195312  10 t-inv F
  0.000000  0.250000 -0.250000    0.00195312  10 t-inv F
 -0.375000 -0.250000  0.000000    0.00195312  11 t-inv F
  0.000000  0.375000  0.250000    0.00195312  11 t-inv F
  0.000000 -0.375000 -0.250000    0.00195312  11 t-inv F
  0.250000  0.000000  0.375000    0.00195312  11 t-inv F
 -0.250000  0.000000 -0.375000    0.00195312  11 t-inv F
 -0.250000  0.375000  0.000000    0.00195312  11 t-inv F
  0.250000 -0.375000  0.000000    0.00195312  11 t-inv F
 -0.375000  0.000000  0.250000    0.00195312  11 t-inv F
  0.375000  0.000000 -0.250000    0.00195312  11 t-inv F
  0.000000  0.250000  0.375000    0.00195312  11 t-inv F
  0.000000 -0.250000 -0.375000    0.00195312  11 t-inv F
  0.000000 -0.375000  0.250000    0.00195312  11 t-inv F
  0.000000  0.375000 -0.250000    0.00195312  11 t-inv F
 -0.250000  0.000000  0.375000    0.00195312  11 t-inv F
  0.250000  0.000000 -0.375000    0.00195312  11 t-inv F
  0.375000  0.000000  0.250000    0.00195312  11 t-inv F
 -0.375000  0.000000 -0.250000    0.00195312  11 t-inv F
  0.000000 -0.250000  0.375000    0.00195312  11 t-inv F
  0.000000  0.250000 -0.375000    0.00195312  11 t-inv F
  0.375000 -0.250000  0.000000    0.00195312  11 t-inv F
 -0.375000  0.250000  0.000000    0.00195312  11 t-inv F
  0.250000  0.375000  0.000000    0.00195312  11 t-inv F
 -0.250000 -0.375000  0.000000    0.00195312  11 t-inv F
 -0.500000 -0.250000  0.000000    0.00195312  12 t-inv F
  0.000000  0.500000  0.250000    0.00195312  12 t-inv F
  0.000000 -0.500000 -0.250000    0.00195312  12 t-inv F
  0.250000  0.000000  0.500000    0.00195312  12 t-inv F
 -0.250000  0.000000 -0.500000    0.00195312  12 t-inv F
 -0.250000  0.500000  0.000000    0.00195312  12 t-inv F
  0.250000 -0.500000  0.000000    0.00195312  12 t-inv F
 -0.500000  0.000000  0.250000    0.00195312  12 t-inv F
  0.500000  0.000000 -0.250000    0.00195312  12 t-inv F
  0.000000  0.250000  0.500000    0.00195312  12 t-inv F
  0.000000 -0.250000 -0.500000    0.00195312  12 t-inv F
 -0.375000 -0.375000  0.000000    0.00195312  13 t-inv F
  0.000000  0.375000  0.375000    0.00195312  13 t-inv F
  0.000000 -0.375000 -0.375000    0.00195312  13 t-inv F
  0.375000  0.000000  0.375000    0.00195312  13 t-inv F
 -0.375000  0.000000 -0.375000    0.00195312  13 t-inv F
 -0.375000  0.375000  0.000000    0.00195312  13 t-inv F
  0.375000 -0.375000  0.000000    0.00195312  13 t-inv F
 -0.375000  0.000000  0.375000    0.00195312  13 t-inv F
  0.375000  0.000000 -0.375000    0.00195312  13 t-inv F
  0.000000 -0.375000  0.375000    0.00195312  13 t-inv F
  0.000000  0.375000 -0.375000    0.00195312  13 t-inv F
 -0.500000 -0.375000  0.000000    0.00195312  14 t-inv F
  0.000000  0.500000  0.375000    0.00195312  14 t-inv F
  0.000000 -0.500000 -0.375000    0.00195312  14 t-inv F
  0.375000  0.000000  0.500000    0.00195312  14 t-inv F
 -0.375000  0.000000 -0.500000    0.00195312  14 t-inv F
 -0.375000  0.500000  0.000000    0.00195312  14 t-inv F
  0.375000 -0.500000  0.000000    0.00195312  14 t-inv F
 -0.500000  0.000000  0.375000    0.00195312  14 t-inv F
  0.500000  0.000000 -0.375000    0.00195312  14 t-inv F
  0.000000  0.375000  0.500000    0.00195312  14 t-inv F
  0.000000 -0.375000 -0.500000    0.00195312  14 t-inv F
  0.000000  0.500000  0.500000    0.00195312  15 t-inv F
  0.500000  0.000000  0.500000    0.00195312  15 t-inv F
 -0.125000 -0.125000 -0.125000    0.00195312  16 t-inv F
 -0.125000  0.125000  0.125000    0.00195312  16 t-inv F
  0.125000 -0.125000 -0.125000    0.00195312  16 t-inv F
 -0.125000 -0.125000  0.125000    0.00195312  16 t-inv F
  0.125000  0.125000 -0.125000    0.00195312  16 t-inv F
  0.125000 -0.125000  0.125000    0.00195312  16 t-inv F
 -0.125000  0.125000 -0.125000    0.00195312  16 t-inv F
 -0.250000 -0.125000 -0.125000    0.00195312  17 t-inv F
  0.125000  0.250000  0.125000    0.00195312  17 t-inv F
 -0.125000 -0.250000 -0.125000    0.00195312  17 t-inv F
  0.125000  0.125000  0.250000    0.00195312  17 t-inv F
 -0.125000 -0.125000 -0.250000    0.00195312  17 t-inv F
 -0.125000  0.250000  0.125000    0.00195312  17 t-inv F
  0.125000 -0.250000 -0.125000    0.00195312  17 t-inv F
 -0.250000  0.125000  0.125000    0.00195312  17 t-inv F
  0.250000 -0.125000 -0.125000    0.00195312  17 t-inv F
 -0.125000  0.125000  0.250000    0.00195312  17 t-inv F
  0.125000 -0.125000 -0.250000    0.00195312  17 t-inv F
 -0.250000 -0.125000  0.125000    0.00195312  17 t-inv F
  0.250000  0.125000 -0.125000    0.00195312  17 t-inv F
 -0.125000 -0.250000  0.125000    0.00195312  17 t-inv F
  0.125000  0.250000 -0.125000    0.00195312  17 t-inv F
 -0.125000 -0.125000  0.250000    0.00195312  17 t-inv F
  0.125000  0.125000 -0.250000    0.00195312  17 t-inv F
  0.125000 -0.250000  0.125000    0.00195312  17 t-inv F
 -0.125000  0.250000 -0.125000    0.00195312  17 t-inv F
  0.250000 -0.125000  0.125000    0.00195312  17 t-inv F
 -0.250000  0.125000 -0.125000    0.00195312  17 t-inv F
  0.125000 -0.125000  0.250000    0.00195312  17 t-inv F
 -0.125000  0.125000 -0.250000    0.00195312  17 t-inv F
 -0.375000 -0.125000 -0.125000    0.00195312  18 t-inv F
  0.125000  0.375000  0.125000    0.00195312  18 t-inv F
 -0.125000 -0.375000 -0.125000    0.00195312  18 t-inv F
  0.125000  0.125000  0.375000    0.00195312  18 t-inv F
 -0.125000 -0.125000 -0.375000    0.00195312  18 t-inv F
 -0.125000  0.375000  0.125000    0.00195312  18 t-inv F
  0.125000 -0.375000 -0.125000    0.00195312  18 t-inv F
 -0.375000  0.125000  0.125000    0.00195312  18 t-inv F
  0.375000 -0.125000 -0.125000    0.00195312  18 t-inv F
 -0.125000  0.125000  0.375000    0.00195312  18 t-inv F
  0.125000 -0.125000 -0.375000    0.00195312  18 t-inv F
 -0.375000 -0.125000  0.125000    0.00195312  18 t-inv F
  0.375000  0.125000 -0.125000    0.00195312  18 t-inv F
 -0.125000 -0.375000  0.125000    0.00195312  18 t-inv F
  0.125000  0.375000 -0.125000    0.00195312  18 t-inv F
 -0.125000 -0.125000  0.375000    0.00195312  18 t-inv F
  0.125000  0.125000 -0.375000    0.00195312  18 t-inv F
  0.125000 -0.375000  0.125000    0.00195312  18 t-inv F
 -0.125000  0.375000 -0.125000    0.00195312  18 t-inv F
  0.375000 -0.125000  0.125000    0.00195312  18 t-inv F
 -0.375000  0.125000 -0.125000    0.00195312  18 t-inv F
  0.125000 -0.125000  0.375000    0.00195312  18 t-inv F
 -0.125000  0.125000 -0.375000    0.00195312  18 t-inv F
 -0.500000 -0.125000 -0.125000    0.00195312  19 t-inv F
  0.125000  0.500000  0.125000    0.00195312  19 t-inv F
 -0.125000 -0.500000 -0.125000    0.00195312  19 t-inv F
  0.125000  0.125000  0.500000    0.00195312  19 t-inv F
 -0.125000 -0.125000 -0.500000    0.00195312  19 t-inv F
 -0.125000  0.500000  0.125000    0.00195312  19 t-inv F
  0.125000 -0.500000 -0.125000    0.00195312  19 t-inv F
 -0.125000  0.125000  0.500000    0.00195312  19 t-inv F
  0.125000 -0.125000 -0.500000    0.00195312  19 t-inv F
 -0.500000 -0.125000  0.125000    0.00195312  19 t-inv F
  0.500000  0.125000 -0.125000    0.00195312  19 t-inv F
 -0.250000 -0.250000 -0.125000    0.00195312  20 t-inv F
  0.125000  0.250000  0.250000    0.00195312  20 t-inv F
 -0.125000 -0.250000 -0.250000    0.00195312  20 t-inv F
  0.250000  0.125000  0.250000    0.00195312  20 t-inv F
 -0.250000 -0.125000 -0.250000    0.00195312  20 t-inv F
 -0.250000  0.250000  0.125000    0.00195312  20 t-inv F
  0.250000 -0.250000 -0.125000    0.00195312  20 t-inv F
 -0.250000  0.125000  0.250000    0.00195312  20 t-inv F
  0.250000 -0.125000 -0.250000    0.00195312  20 t-inv F
 -0.125000  0.250000  0.250000    0.00195312  20 t-inv F
  0.125000 -0.250000 -0.250000    0.00195312  20 t-inv F
 -0.250000 -0.250000  0.125000    0.00195312  20 t-inv F
  0.250000  0.250000 -0.125000    0.00195312  20 t-inv F
 -0.125000 -0.250000  0.250000    0.00195312  20 t-inv F
  0.125000  0.250000 -0.250000    0.00195312  20 t-inv F
 -0.250000 -0.125000  0.250000    0.00195312  20 t-inv F
  0.250000  0.125000 -0.250000    0.00195312  20 t-inv F
  0.250000 -0.250000  0.125000    0.00195312  20 t-inv F
 -0.250000  0.250000 -0.125000    0.00195312  20 t-inv F
  0.250000 -0.125000  0.250000    0.00195312  20 t-inv F
 -0.250000  0.125000 -0.250000    0.00195312  20 t-inv F
  0.125000 -0.250000  0.250000    0.00195312  20 t-inv F
 -0.125000  0.250000 -0.250000    0.00195312  20 t-inv F
 -0.375000 -0.250000 -0.125000    0.00195312  21 t-inv F
  0.125000  0.375000  0.250000    0.00195312  21 t-inv F
 -0.125000 -0.375000 -0.250000    0.00195312  21 t-inv F
  0.250000  0.125000  0.375000    0.00195312  21 t-inv F
 -0.250000 -0.125000 -0.375000    0.00195312  21 t-inv F
 -0.250000  0.375000  0.125000    0.00195312  21 t-inv F
  0.250000 -0.375000 -0.125000    0.00195312  21 t-inv F
 -0.375000  0.125000  0.250000    0.00195312  21 t-inv F
  0.375000 -0.125000 -0.250000    0.00195312  21 t-inv F
 -0.125000  0.250000  0.375000    0.00195312  21 t-inv F
  0.125000 -0.250000 -0.375000    0.00195312  21 t-inv F
 -0.375000 -0.250000  0.125000    0.00195312  21 t-inv F
  0.375000  0.250000 -0.125000    0.00195312  21 t-inv F
 -0.125000 -0.375000  0.250000    0.00195312  21 t-inv F
  0.125000  0.375000 -0.250000    0.00195312  21 t-inv F
 -0.250000 -0.125000  0.375000    0.00195312  21 t-inv F
  0.250000  0.125000 -0.375000    0.00195312  21 t-inv F
  0.250000 -0.375000  0.125000    0.00195312  21 t-inv F
 -0.250000  0.375000 -0.125000    0.00195312  21 t-inv F
  0.375000 -0.125000  0.250000    0.00195312  21 t-inv F
 -0.375000  0.125000 -0.250000    0.00195312  21 t-inv F
  0.125000 -0.250000  0.375000    0.00195312  21 t-inv F
 -0.125000  0.250000 -0.375000    0.00195312  21 t-inv F
  0.125000 -0.375000 -0.250000    0.00195312  21 t-inv F
 -0.125000  0.375000  0.250000    0.00195312  21 t-inv F
  0.250000 -0.125000 -0.375000    0.00195312  21 t-inv F
 -0.250000  0.125000  0.375000    0.00195312  21 t-inv F
  0.375000 -0.250000 -0.125000    0.00195312  21 t-inv F
 -0.375000  0.250000  0.125000    0.00195312  21 t-inv F
  0.125000  0.250000 -0.375000    0.00195312  21 t-inv F
 -0.125000 -0.250000  0.375000    0.00195312  21 t-inv F
  0.250000  0.375000 -0.125000    0.00195312  21 t-inv F
 -0.250000 -0.375000  0.125000    0.00195312  21 t-inv F
  0.375000  0.125000 -0.250000    0.00195312  21 t-inv F
 -0.375000 -0.125000  0.250000    0.00195312  21 t-inv F
 -0.250000  0.125000 -0.375000    0.00195312  21 t-inv F
  0.250000 -0.125000  0.375000    0.00195312  21 t-inv F
 -0.375000  0.250000 -0.125000    0.00195312  21 t-inv F
  0.375000 -0.250000  0.125000    0.00195312  21 t-inv F
 -0.125000  0.375000 -0.250000    0.00195312  21 t-inv F
  0.125000 -0.375000  0.250000    0.00195312  21 t-inv F
 -0.375000 -0.125000 -0.250000    0.00195312  21 t-inv F
  0.375000  0.125000  0.250000    0.00195312  21 t-inv F
 -0.250000 -0.375000 -0.125000    0.00195312  21 t-inv F
  0.250000  0.375000  0.125000    0.00195312  21 t-inv F
 -0.125000 -0.250000 -0.375000    0.00195312  21 t-inv F
  0.125000  0.250000  0.375000    0.00195312  21 t-inv F
 -0.500000 -0.250000 -0.125000    0.00195312  22 t-inv F
  0.125000  0.500000  0.250000    0.00195312  22 t-inv F
 -0.125000 -0.500000 -0.250000    0.00195312  22 t-inv F
  0.250000  0.125000  0.500000    0.00195312  22 t-inv F
 -0.250000 -0.125000 -0.500000    0.00195312  22 t-inv F
 -0.250000  0.500000  0.125000    0.00195312  22 t-inv F
  0.250000 -0.500000 -0.125000    0.00195312  22 t-inv F
 -0.500000  0.125000  0.250000    0.00195312  22 t-inv F
  0.500000 -0.125000 -0.250000    0.00195312  22 t-inv F
 -0.125000  0.250000  0.500000    0.00195312  22 t-inv F
  0.125000 -0.250000 -0.500000    0.00195312  22 t-inv F
 -0.500000 -0.250000  0.125000    0.00195312  22 t-inv F
  0.500000  0.250000 -0.125000    0.00195312  22 t-inv F
 -0.125000 -0.500000  0.250000    0.00195312  22 t-inv F
  0.125000  0.500000 -0.250000    0.00195312  22 t-inv F
  0.250000 -0.500000  0.125000    0.00195312  22 t-inv F
 -0.250000  0.500000 -0.125000    0.00195312  22 t-inv F
  0.500000 -0.125000  0.250000    0.00195312  22 t-inv F
 -0.500000  0.125000 -0.250000    0.00195312  22 t-inv F
  0.250000 -0.125000 -0.500000    0.00195312  22 t-inv F
 -0.250000  0.125000  0.500000    0.00195312  22 t-inv F
  0.125000  0.250000 -0.500000    0.00195312  22 t-inv F
 -0.125000 -0.250000  0.500000    0.00195312  22 t-inv F
 -0.375000 -0.375000 -0.125000    0.00195312  23 t-inv F
  0.125000  0.375000  0.375000    0.00195312  23 t-inv F
 -0.125000 -0.375000 -0.375000    0.00195312  23 t-inv F
  0.375000  0.125000  0.375000    0.00195312  23 t-inv F
 -0.375000 -0.125000 -0.375000    0.00195312  23 t-inv F
 -0.375000  0.375000  0.125000    0.00195312  23 t-inv F
  0.375000 -0.375000 -0.125000    0.00195312  23 t-inv F
 -0.375000  0.125000  0.375000    0.00195312  23 t-inv F
  0.375000 -0.125000 -0.375000    0.00195312  23 t-inv F
 -0.125000  0.375000  0.375000    0.00195312  23 t-inv F
  0.125000 -0.375000 -0.375000    0.00195312  23 t-inv F
 -0.375000 -0.375000  0.125000    0.00195312  23 t-inv F
  0.375000  0.375000 -0.125000    0.00195312  23 t-inv F
 -0.125000 -0.375000  0.375000    0.00195312  23 t-inv F
  0.125000  0.375000 -0.375000    0.00195312  23 t-inv F
 -0.375000 -0.125000  0.375000    0.00195312  23 t-inv F
  0.375000  0.125000 -0.375000    0.00195312  23 t-inv F
  0.375000 -0.375000  0.125000    0.00195312  23 t-inv F
 -0.375000  0.375000 -0.125000    0.00195312  23 t-inv F
  0.375000 -0.125000  0.375000    0.00195312  23 t-inv F
 -0.375000  0.125000 -0.375000    0.00195312  23 t-inv F
  0.125000 -0.375000  0.375000    0.00195312  23 t-inv F
 -0.125000  0.375000 -0.375000    0.00195312  23 t-inv F
 -0.500000 -0.375000 -0.125000    0.00195312  24 t-inv F
  0.125000  0.500000  0.375000    0.00195312  24 t-inv F
 -0.125000 -0.500000 -0.375000    0.00195312  24 t-inv F
  0.375000  0.125000  0.500000    0.00195312  24 t-inv F
 -0.375000 -0.125000 -0.500000    0.00195312  24 t-inv F
 -0.375000  0.500000  0.125000    0.00195312  24 t-inv F
  0.375000 -0.500000 -0.125000    0.00195312  24 t-inv F
 -0.500000  0.125000  0.375000    0.00195312  24 t-inv F
  0.500000 -0.125000 -0.375000    0.00195312  24 t-inv F
 -0.125000  0.375000  0.500000    0.00195312  24 t-inv F
  0.125000 -0.375000 -0.500000    0.00195312  24 t-inv F
 -0.500000 -0.375000  0.125000    0.00195312  24 t-inv F
  0.500000  0.375000 -0.125000    0.00195312  24 t-inv F
 -0.125000 -0.500000  0.375000    0.00195312  24 t-inv F
  0.125000  0.500000 -0.375000    0.00195312  24 t-inv F
  0.375000 -0.500000  0.125000    0.00195312  24 t-inv F
 -0.375000  0.500000 -0.125000    0.00195312  24 t-inv F
  0.500000 -0.125000  0.375000    0.00195312  24 t-inv F
 -0.500000  0.125000 -0.375000    0.00195312  24 t-inv F
  0.375000 -0.125000 -0.500000    0.00195312  24 t-inv F
 -0.375000  0.125000  0.500000    0.00195312  24 t-inv F
  0.125000  0.375000 -0.500000    0.00195312  24 t-inv F
 -0.125000 -0.375000  0.500000    0.00195312  24 t-inv F
 -0.500000 -0.500000 -0.125000    0.00195312  25 t-inv F
  0.125000  0.500000  0.500000    0.00195312  25 t-inv F
 -0.125000 -0.500000 -0.500000    0.00195312  25 t-inv F
  0.500000  0.125000  0.500000    0.00195312  25 t-inv F
 -0.500000 -0.125000 -0.500000    0.00195312  25 t-inv F
 -0.250000 -0.250000 -0.250000    0.00195312  26 t-inv F
 -0.250000  0.250000  0.250000    0.00195312  26 t-inv F
  0.250000 -0.250000 -0.250000    0.00195312  26 t-inv F
 -0.250000 -0.250000  0.250000    0.00195312  26 t-inv F
  0.250000  0.250000 -0.250000    0.00195312  26 t-inv F
  0.250000 -0.250000  0.250000    0.00195312  26 t-inv F
 -0.250000  0.250000 -0.250000    0.00195312  26 t-inv F
 -0.375000 -0.250000 -0.250000    0.00195312  27 t-inv F
  0.250000  0.375000  0.250000    0.00195312  27 t-inv F
 -0.250000 -0.375000 -0.250000    0.00195312  27 t-inv F
  0.250000  0.250000  0.375000    0.00195312  27 t-inv F
 -0.250000 -0.250000 -0.375000    0.00195312  27 t-inv F
 -0.250000  0.375000  0.250000    0.00195312  27 t-inv F
  0.250000 -0.375000 -0.250000    0.00195312  27 t-inv F
 -0.375000  0.250000  0.250000    0.00195312  27 t-inv F
  0.375000 -0.250000 -0.250000    0.00195312  27 t-inv F
 -0.250000  0.250000  0.375000    0.00195312  27 t-inv F
  0.250000 -0.250000 -0.375000    0.00195312  27 t-inv F
 -0.375000 -0.250000  0.250000    0.00195312  27 t-inv F
  0.375000  0.250000 -0.250000    0.00195312  27 t-inv F
 -0.250000 -0.375000  0.250000    0.00195312  27 t-inv F
  0.250000  0.375000 -0.250000    0.00195312  27 t-inv F
 -0.250000 -0.250000  0.375000    0.00195312  27 t-inv F
  0.250000  0.250000 -0.375000    0.00195312  27 t-inv F
  0.250000 -0.375000  0.250000    0.00195312  27 t-inv F
 -0.250000  0.375000 -0.250000    0.00195312  27 t-inv F
  0.375000 -0.250000  0.250000    0.00195312  27 t-inv F
 -0.375000  0.250000 -0.250000    0.00195312  27 t-inv F
  0.250000 -0.250000  0.375000    0.00195312  27 t-inv F
 -0.250000  0.250000 -0.375000    0.00195312  27 t-inv F
 -0.500000 -0.250000 -0.250000    0.00195312  28 t-inv F
  0.250000  0.500000  0.250000    0.00195312  28 t-inv F
 -0.250000 -0.500000 -0.250000    0.00195312  28 t-inv F
  0.250000  0.250000  0.500000    0.00195312  28 t-inv F
 -0.250000 -0.250000 -0.500000    0.00195312  28 t-inv F
 -0.250000  0.500000  0.250000    0.00195312  28 t-inv F
  0.250000 -0.500000 -0.250000    0.00195312  28 t-inv F
 -0.250000  0.250000  0.500000    0.00195312  28 t-inv F
  0.250000 -0.250000 -0.500000    0.00195312  28 t-inv F
 -0.500000 -0.250000  0.250000    0.00195312  28 t-inv F
  0.500000  0.250000 -0.250000    0.00195312  28 t-inv F
 -0.375000 -0.375000 -0.250000    0.00195312  29 t-inv F
  0.250000  0.375000  0.375000    0.00195312  29 t-inv F
 -0.250000 -0.375000 -0.375000    0.00195312  29 t-inv F
  0.375000  0.250000  0.375000    0.00195312  29 t-inv F
 -0.375000 -0.250000 -0.375000    0.00195312  29 t-inv F
 -0.375000  0.375000  0.250000    0.00195312  29 t-inv F
  0.375000 -0.375000 -0.250000    0.00195312  29 t-inv F
 -0.375000  0.250000  0.375000    0.00195312  29 t-inv F
  0.375000 -0.250000 -0.375000    0.00195312  29 t-inv F
 -0.250000  0.375000  0.375000    0.00195312  29 t-inv F
  0.250000 -0.375000 -0.375000    0.00195312  29 t-inv F
 -0.375000 -0.375000  0.250000    0.00195312  29 t-inv F
  0.375000  0.375000 -0.250000    0.00195312  29 t-inv F
 -0.250000 -0.375000  0.375000    0.00195312  29 t-inv F
  0.250000  0.375000 -0.375000    0.00195312  29 t-inv F
 -0.375000 -0.250000  0.375000    0.00195312  29 t-inv F
  0.375000  0.250000 -0.375000    0.00195312  29 t-inv F
  0.375000 -0.375000  0.250000    0.00195312  29 t-inv F
 -0.375000  0.375000 -0.250000    0.00195312  29 t-inv F
  0.375000 -0.250000  0.375000    0.00195312  29 t-inv F
 -0.375000  0.250000 -0.375000    0.00195312  29 t-inv F
  0.250000 -0.375000  0.375000    0.00195312  29 t-inv F
 -0.250000  0.375000 -0.375000    0.00195312  29 t-inv F
 -0.500000 -0.375000 -0.250000    0.00195312  30 t-inv F
  0.250000  0.500000  0.375000    0.00195312  30 t-inv F
 -0.250000 -0.500000 -0.375000    0.00195312  30 t-inv F
  0.375000  0.250000  0.500000    0.00195312  30 t-inv F
 -0.375000 -0.250000 -0.500000    0.00195312  30 t-inv F
 -0.375000  0.500000  0.250000    0.00195312  30 t-inv F
  0.375000 -0.500000 -0.250000    0.00195312  30 t-inv F
 -0.500000  0.250000  0.375000    0.00195312  30 t-inv F
  0.500000 -0.250000 -0.375000    0.00195312  30 t-inv F
 -0.250000  0.375000  0.500000    0.00195312  30 t-inv F
  0.250000 -0.375000 -0.500000    0.00195312  30 t-inv F
 -0.500000 -0.375000  0.250000    0.00195312  30 t-inv F
  0.500000  0.375000 -0.250000    0.00195312  30 t-inv F
 -0.250000 -0.500000  0.375000    0.00195312  30 t-inv F
  0.250000  0.500000 -0.375000    0.00195312  30 t-inv F
  0.375000 -0.500000  0.250000    0.00195312  30 t-inv F
 -0.375000  0.500000 -0.250000    0.00195312  30 t-inv F
  0.500000 -0.250000  0.375000    0.00195312  30 t-inv F
 -0.500000  0.250000 -0.375000    0.00195312  30 t-inv F
  0.375000 -0.250000 -0.500000    0.00195312  30 t-inv F
 -0.375000  0.250000  0.500000    0.00195312  30 t-inv F
  0.250000  0.375000 -0.500000    0.00195312  30 t-inv F
 -0.250000 -0.375000  0.500000    0.00195312  30 t-inv F
 -0.500000 -0.500000 -0.250000    0.00195312  31 t-inv F
  0.250000  0.500000  0.500000    0.00195312  31 t-inv F
 -0.250000 -0.500000 -0.500000    0.00195312  31 t-inv F
  0.500000  0.250000  0.500000    0.00195312  31 t-inv F
 -0.500000 -0.250000 -0.500000    0.00195312  31 t-inv F
 -0.375000 -0.375000 -0.375000    0.00195312  32 t-inv F
 -0.375000  0.375000  0.375000    0.00195312  32 t-inv F
  0.375000 -0.375000 -0.375000    0.00195312  32 t-inv F
 -0.375000 -0.375000  0.375000    0.00195312  32 t-inv F
  0.375000  0.375000 -0.375000    0.00195312  32 t-inv F
  0.375000 -0.375000  0.375000    0.00195312  32 t-inv F
 -0.375000  0.375000 -0.375000    0.00195312  32 t-inv F
 -0.500000 -0.375000 -0.375000    0.00195312  33 t-inv F
  0.375000  0.500000  0.375000    0.00195312  33 t-inv F
 -0.375000 -0.500000 -0.375000    0.00195312  33 t-inv F
  0.375000  0.375000  0.500000    0.00195312  33 t-inv F
 -0.375000 -0.375000 -0.500000    0.00195312  33 t-inv F
 -0.375000  0.500000  0.375000    0.00195312  33 t-inv F
  0.375000 -0.500000 -0.375000    0.00195312  33 t-inv F
 -0.375000  0.375000  0.500000    0.00195312  33 t-inv F
  0.375000 -0.375000 -0.500000    0.00195312  33 t-inv F
 -0.500000 -0.375000  0.375000    0.00195312  33 t-inv F
  0.500000  0.375000 -0.375000    0.00195312  33 t-inv F
 -0.500000 -0.500000 -0.375000    0.00195312  34 t-inv F
  0.375000  0.500000  0.500000    0.00195312  34 t-inv F
 -0.375000 -0.500000 -0.500000    0.00195312  34 t-inv F
  0.500000  0.375000  0.500000    0.00195312  34 t-inv F
 -0.500000 -0.375000 -0.500000    0.00195312  34 t-inv F

 ----------------------------------------------------------------------------- 
|                                                                             |
|           W    W    AA    RRRRR   N    N  II  N    N   GGGG   !!!           |
|           W    W   A  A   R    R  NN   N  II  NN   N  G    G  !!!           |
|           W    W  A    A  R    R  N N  N  II  N N  N  G       !!!           |
|           W WW W  AAAAAA  RRRRR   N  N N  II  N  N N  G  GGG   !            |
|           WW  WW  A    A  R   R   N   NN  II  N   NN  G    G                |
|           W    W  A    A  R    R  N    N  II  N    N   GGGG   !!!           |
|                                                                             |
|      The number of bands has been changed from the values supplied          |
|      in the INCAR file. This is a result of running the parallel version.   |
|      The orbitals not found in the WAVECAR file will be initialized with    |
|      random numbers, which is usually adequate. For correlated              |
|      calculations, however, you should redo the groundstate calculation.    |
|      I found NBANDS    =       60  now  NBANDS  =      64                   |
|                                                                             |
 ----------------------------------------------------------------------------- 



--------------------------------------------------------------------------------------------------------




 Dimension of arrays:
   k-points           NKPTS =    220   k-points in BZ     NKDIM =    697   number of bands    NBANDS=     64
   number of dos      NEDOS =    301   number of ions     NIONS =      2
   non local maximal  LDIM  =      6   non local SUM 2l+1 LMDIM =     18
   total plane-waves  NPLWV =  13824
   max r-space proj   IRMAX =      1   max aug-charges    IRDMAX= 273012
   dimension x,y,z NGX =    24 NGY =   24 NGZ =   24
   dimension x,y,z NGXF=    48 NGYF=   48 NGZF=   48
   support grid    NGXF=    96 NGYF=   96 NGZF=   96
   ions per type =               1   1
   NGX,Y,Z   is equivalent  to a cutoff of  12.63, 12.63, 12.63 a.u.
   NGXF,Y,Z  is equivalent  to a cutoff of  25.26, 25.26, 25.26 a.u.

 SYSTEM =  matgen-band                             
 POSCAR =  N1 Pr1                                  

 Startparameter for this run:
   NWRITE =      2    write-flag & timer
   PREC   = accura    normal or accurate (medium, high low for compatibility)
   ISTART =      1    job   : 0-new  1-cont  2-samecut
   ICHARG =     11    charge: 1-file 2-atom 10-const
   ISPIN  =      1    spin polarized calculation?
   LNONCOLLINEAR =      F non collinear calculations
   LSORBIT =      F    spin-orbit coupling
   INIWAV =      1    electr: 0-lowe 1-rand  2-diag
   LASPH  =      F    aspherical Exc in radial PAW
   METAGGA=      F    non-selfconsistent MetaGGA calc.

 Electronic Relaxation 1
   ENCUT  =  520.0 eV  38.22 Ry    6.18 a.u.   5.87  5.87  5.87*2*pi/ulx,y,z
   ENINI  =  520.0     initial cutoff
   ENAUG  =  627.1 eV  augmentation charge cutoff
   NELM   =    140;   NELMIN=  6; NELMDL=  0     # of ELM steps 
   EDIFF  = 0.1E-03   stopping-criterion for ELM
   LREAL  =      F    real-space projection
   NLSPLINE    = F    spline interpolate recip. space projectors
   LCOMPAT=      F    compatible to vasp.4.4
   GGA_COMPAT  = T    GGA compatible to vasp.4.4-vasp.4.6
   LMAXPAW     = -100 max onsite density
   LMAXMIX     =    6 max onsite mixed and CHGCAR
   VOSKOWN=      0    Vosko Wilk Nusair interpolation
   ROPT   =    0.00000   0.00000
 Ionic relaxation
   EDIFFG = -.1E-01   stopping-criterion for IOM
   NSW    =      0    number of steps for IOM
   NBLOCK =      1;   KBLOCK =      1    inner block; outer block 
   IBRION =     -1    ionic relax: 0-MD 1-quasi-New 2-CG
   NFREE  =      0    steps in history (QN), initial steepest desc. (CG)
   ISIF   =      0    stress and relaxation
   IWAVPR =     10    prediction:  0-non 1-charg 2-wave 3-comb
   ISYM   =      3    0-nonsym 1-usesym 2-fastsym
   LCORR  =      T    Harris-Foulkes like correction to forces

   POTIM  = 0.0500    time-step for ionic-motion
   TEIN   =    0.0    initial temperature
   TEBEG  =    0.0;   TEEND  =   0.0 temperature during run
   SMASS  =  -3.00    Nose mass-parameter (am)
   estimated Nose-frequenzy (Omega)   =  0.10E-29 period in steps =****** mass=  -0.228E-27a.u.
   SCALEE = 1.0000    scale energy and forces
   NPACO  =    256;   APACO  = 16.0  distance and # of slots for P.C.
   PSTRESS=    0.0 pullay stress

  Mass of Ions in am
   POMASS =  14.00140.91
  Ionic Valenz
   ZVAL   =   5.00 11.00
  Atomic Wigner-Seitz radii
   RWIGS  =  -1.00 -1.00
  virtual crystal weights 
   VCA    =   1.00  1.00
   NELECT =      16.0000    total number of electrons
   NUPDOWN=      -1.0000    fix difference up-down

 DOS related values:
   EMIN   =  10.00;   EMAX   =-10.00  energy-range for DOS
   EFERMI =   0.00
   ISMEAR =     0;   SIGMA  =   0.05  broadening in eV -4-tet -1-fermi 0-gaus

 Electronic relaxation 2 (details)
   IALGO  =     53    algorithm
   LDIAG  =      T    sub-space diagonalisation (order eigenvalues)
   LSUBROT=      F    optimize rotation matrix (better conditioning)
   TURBO    =      0    0=normal 1=particle mesh
   IRESTART =      0    0=no restart 2=restart with 2 vectors
   NREBOOT  =      0    no. of reboots
   NMIN     =      0    reboot dimension
   EREF     =   0.00    reference energy to select bands
   IMIX   =      4    mixing-type and parameters
     AMIX     =   0.10;   BMIX     =  1.20
     AMIX_MAG =   0.40;   BMIX_MAG =  1.20
     AMIN     =   0.10
     WC   =   100.;   INIMIX=   1;  MIXPRE=   1;  MAXMIX= -45

 Intra band minimization:
   WEIMIN = 0.0000     energy-eigenvalue tresh-hold
   EBREAK =  0.39E-06  absolut break condition
   DEPER  =   0.30     relativ break condition  

   TIME   =   0.40     timestep for ELM

  volume/ion in A,a.u.               =      15.77       106.44
  Fermi-wavevector in a.u.,A,eV,Ry     =   1.305593  2.467212 23.192114  1.704572
  Thomas-Fermi vector in A             =   2.436451
 
 Write flags
   LWAVE        =      F    write WAVECAR
   LDOWNSAMPLE  =      F    k-point downsampling of WAVECAR
   LCHARG       =      T    write CHGCAR
   LVTOT        =      F    write LOCPOT, total local potential
   LVHAR        =      F    write LOCPOT, Hartree potential only
   LELF         =      F    write electronic localiz. function (ELF)
   LORBIT       =     11    0 simple, 1 ext, 2 COOP (PROOUT), +10 PAW based schemes


 Dipole corrections
   LMONO  =      F    monopole corrections only (constant potential shift)
   LDIPOL =      F    correct potential (dipole corrections)
   IDIPOL =      0    1-x, 2-y, 3-z, 4-all directions 
   EPSILON=  1.0000000 bulk dielectric constant

 LDA+U is selected, type is set to LDAUTYPE =  2
   angular momentum for each species LDAUL =    -1    3
   U (eV)           for each species LDAUU =   0.0  5.5
   J (eV)           for each species LDAUJ =   0.0  0.0
 Exchange correlation treatment:
   GGA     =    --    GGA type
   LEXCH   =     8    internal setting for exchange type
   VOSKOWN=      0    Vosko Wilk Nusair interpolation
   EXXOEP  =     0    0=HF, 1=EXX-LHF (local Hartree Fock) 2=EXX OEP
   LHFCALC =     T    Hartree Fock is set to
   LSYMGRAD=     F    symmetrize gradient (conserves proper symmetry)
   PRECFOCK=normal    Normal, Fast or Accurate (Low or Medium for compatibility)
   LRHFCALC=     F    long range Hartree Fock
   LRSCOR  =     F    long range correlation only (use DFT for short range part)
   LTHOMAS =     F    Thomas Fermi screening in HF
   LMODELHF=     F    short range full HF, long range fraction AEXX
   ENCUT4O =  -1.0   cutoff for four orbital integrals eV
   LMAXFOCK=     4    L truncation for augmentation on plane wave grid
   LMAXFOCKAE=  -1    L truncation for all-electron charge restoration on plane wave grid
   NMAXFOCKAE=   1    number of basis functions for all-electron charge restoration
   LFOCKAEDFT=     F  apply the AE augmentation even for DFT
   NKREDX  =     1    reduce k-point grid by
   NKREDY  =     1    reduce k-point grid by
   NKREDZ  =     1    reduce k-point grid by
   SHIFTRED=     F    shift reduced grid of Gamma
   HFKIDENT=     F    idential grid for each k-point
   ODDONLY =     F    use only odd q-grid points
   EVENONLY=     F    use only even q-grid points
   HFALPHA =   -1.0000 decay constant for conv. correction
   MCALPHA =    0.0000 extent of test-charge in conv. correction in multipole expansion
   AEXX    =    0.2500 exact exchange contribution
   HFSCREEN=    0.2000 screening length (either q_TF or 0.3 A-1)
   HFSCREENC=   0.2000 screening length for correlation (either q_TF or 0.3 A-1)
   HFRCUT  =    0.0000 spherical cutoff for potential kernel
   ALDAX   =    0.7500 LDA exchange part
   AGGAX   =    0.7500 GGA exchange part
   ALDAC   =    1.0000 LDA correlation
   AGGAC   =    1.0000 GGA correlation
   ENCUTFOCK=  -1.0 apply spherical cutoff to Coloumb kernel
   NBANDSGWLOW=     1    first orbital included in HF term
   NBLOCK_FOCK=    64    blocking factor in FOCK_ACC
 Linear response parameters
   LEPSILON=     F    determine dielectric tensor
   LRPA    =     F    only Hartree local field effects (RPA)
   LNABLA  =     F    use nabla operator in PAW spheres
   LVEL    =     F    velocity operator in full k-point grid
   LINTERFAST=   F  fast interpolation
   KINTER  =     0    interpolate to denser k-point grid
   CSHIFT  =0.1000    complex shift for real part using Kramers Kronig
   OMEGAMAX=  -1.0    maximum frequency
   DEG_THRESHOLD= 0.2000000E-02 threshold for treating states as degnerate
   RTIME   =   -0.100 relaxation time in fs
  (WPLASMAI=    0.000 imaginary part of plasma frequency in eV, 0.658/RTIME)
   DFIELD  = 0.0000000 0.0000000 0.0000000 field for delta impulse in time
 
 Orbital magnetization related:
   ORBITALMAG=     F  switch on orbital magnetization
   LCHIMAG   =     F  perturbation theory with respect to B field
   DQ        =  0.001000  dq finite difference perturbation B field
   LLRAUG    =     F  two centre corrections for induced B field



--------------------------------------------------------------------------------------------------------


 Static calculation
 charge density and potential remain constant during run
 non-spin polarized calculation
 Conjugate gradient for all bands (Freysoldt, et al. PRB 79, 241103 (2009))
 perform sub-space diagonalisation
    before iterative eigenvector-optimisation
 no mixing
 using additional bands           56
 reciprocal scheme for non local part
 use partial core corrections
 calculate Harris-corrections to forces 
   (improved forces if not selfconsistent)
 use gradient corrections 
 WARNING: stress and forces are not correct
  (second derivative of E(xc) not defined)
 use of overlap-Matrix (Vanderbilt PP)
 Gauss-broadening in eV      SIGMA  =   0.05


--------------------------------------------------------------------------------------------------------


  energy-cutoff  :      520.00
  volume of cell :       31.54
      direct lattice vectors                 reciprocal lattice vectors
     3.159660714  0.000000000  0.000000000     0.316489677  0.000000000  0.000000000
     0.000000000  3.159660714  0.000000000     0.000000000  0.316489677  0.000000000
     0.000000000  0.000000000  3.159660714     0.000000000  0.000000000  0.316489677

  length of vectors
     3.159660714  3.159660714  3.159660714     0.316489677  0.316489677  0.316489677


 
 old parameters found on file WAVECAR:
  energy-cutoff  :      520.00
  volume of cell :       31.54
      direct lattice vectors                 reciprocal lattice vectors
     3.159660714  0.000000000  0.000000000     0.316489677  0.000000000  0.000000000
     0.000000000  3.159660714  0.000000000     0.000000000  0.316489677  0.000000000
     0.000000000  0.000000000  3.159660714     0.000000000  0.000000000  0.316489677

  length of vectors

 
 k-points in units of 2pi/SCALE and weight: 0.040   8   8   8   35  0.040  185    6 
   0.00000000  0.00000000  0.00000000       0.002
   0.03956121  0.00000000  0.00000000       0.012
   0.07912242  0.00000000  0.00000000       0.012
   0.11868363  0.00000000  0.00000000       0.012
   0.15824484  0.00000000  0.00000000       0.006
   0.03956121  0.03956121  0.00000000       0.023
   0.07912242  0.03956121  0.00000000       0.047
   0.11868363  0.03956121  0.00000000       0.047
   0.15824484  0.03956121  0.00000000       0.023
   0.07912242  0.07912242  0.00000000       0.023
   0.11868363  0.07912242  0.00000000       0.047
   0.15824484  0.07912242  0.00000000       0.023
   0.11868363  0.11868363  0.00000000       0.023
   0.15824484  0.11868363  0.00000000       0.023
   0.15824484  0.15824484  0.00000000       0.006
   0.03956121  0.03956121  0.03956121       0.016
   0.07912242  0.03956121  0.03956121       0.047
   0.11868363  0.03956121  0.03956121       0.047
   0.15824484  0.03956121  0.03956121       0.023
   0.07912242  0.07912242  0.03956121       0.047
   0.11868363  0.07912242  0.03956121       0.094
   0.15824484  0.07912242  0.03956121       0.047
   0.11868363  0.11868363  0.03956121       0.047
   0.15824484  0.11868363  0.03956121       0.047
   0.15824484  0.15824484  0.03956121       0.012
   0.07912242  0.07912242  0.07912242       0.016
   0.11868363  0.07912242  0.07912242       0.047
   0.15824484  0.07912242  0.07912242       0.023
   0.11868363  0.11868363  0.07912242       0.047
   0.15824484  0.11868363  0.07912242       0.047
   0.15824484  0.15824484  0.07912242       0.012
   0.11868363  0.11868363  0.11868363       0.016
   0.15824484  0.11868363  0.11868363       0.023
   0.15824484  0.15824484  0.11868363       0.012
   0.15824484  0.15824484  0.15824484       0.002
   0.00000000  0.00000000  0.00000000       0.000
   0.00000000  0.00688021  0.00000000       0.000
   0.00000000  0.01376042  0.00000000       0.000
   0.00000000  0.02064063  0.00000000       0.000
   0.00000000  0.02752084  0.00000000       0.000
   0.00000000  0.03440105  0.00000000       0.000
   0.00000000  0.04128126  0.00000000       0.000
   0.00000000  0.04816147  0.00000000       0.000
   0.00000000  0.05504168  0.00000000       0.000
   0.00000000  0.06192189  0.00000000       0.000
   0.00000000  0.06880210  0.00000000       0.000
   0.00000000  0.07568231  0.00000000       0.000
   0.00000000  0.08256252  0.00000000       0.000
   0.00000000  0.08944273  0.00000000       0.000
   0.00000000  0.09632295  0.00000000       0.000
   0.00000000  0.10320316  0.00000000       0.000
   0.00000000  0.11008337  0.00000000       0.000
   0.00000000  0.11696358  0.00000000       0.000
   0.00000000  0.12384379  0.00000000       0.000
   0.00000000  0.13072400  0.00000000       0.000
   0.00000000  0.13760421  0.00000000       0.000
   0.00000000  0.14448442  0.00000000       0.000
   0.00000000  0.15136463  0.00000000       0.000
   0.00000000  0.15824484  0.00000000       0.000
   0.00000000  0.15824484  0.00000000       0.000
   0.00688021  0.15824484  0.00000000       0.000
   0.01376042  0.15824484  0.00000000       0.000
   0.02064063  0.15824484  0.00000000       0.000
   0.02752084  0.15824484  0.00000000       0.000
   0.03440105  0.15824484  0.00000000       0.000
   0.04128126  0.15824484  0.00000000       0.000
   0.04816147  0.15824484  0.00000000       0.000
   0.05504168  0.15824484  0.00000000       0.000
   0.06192189  0.15824484  0.00000000       0.000
   0.06880210  0.15824484  0.00000000       0.000
   0.07568231  0.15824484  0.00000000       0.000
   0.08256252  0.15824484  0.00000000       0.000
   0.08944273  0.15824484  0.00000000       0.000
   0.09632295  0.15824484  0.00000000       0.000
   0.10320316  0.15824484  0.00000000       0.000
   0.11008337  0.15824484  0.00000000       0.000
   0.11696358  0.15824484  0.00000000       0.000
   0.12384379  0.15824484  0.00000000       0.000
   0.13072400  0.15824484  0.00000000       0.000
   0.13760421  0.15824484  0.00000000       0.000
   0.14448442  0.15824484  0.00000000       0.000
   0.15136463  0.15824484  0.00000000       0.000
   0.15824484  0.15824484  0.00000000       0.000
   0.15824484  0.15824484  0.00000000       0.000
   0.15359058  0.15359058  0.00000000       0.000
   0.14893632  0.14893632  0.00000000       0.000
   0.14428206  0.14428206  0.00000000       0.000
   0.13962780  0.13962780  0.00000000       0.000
   0.13497354  0.13497354  0.00000000       0.000
   0.13031928  0.13031928  0.00000000       0.000
   0.12566502  0.12566502  0.00000000       0.000
   0.12101076  0.12101076  0.00000000       0.000
   0.11635650  0.11635650  0.00000000       0.000
   0.11170224  0.11170224  0.00000000       0.000
   0.10704798  0.10704798  0.00000000       0.000
   0.10239372  0.10239372  0.00000000       0.000
   0.09773946  0.09773946  0.00000000       0.000
   0.09308520  0.09308520  0.00000000       0.000
   0.08843094  0.08843094  0.00000000       0.000
   0.08377668  0.08377668  0.00000000       0.000
   0.07912242  0.07912242  0.00000000       0.000
   0.07446816  0.07446816  0.00000000       0.000
   0.06981390  0.06981390  0.00000000       0.000
   0.06515964  0.06515964  0.00000000       0.000
   0.06050538  0.06050538  0.00000000       0.000
   0.05585112  0.05585112  0.00000000       0.000
   0.05119686  0.05119686  0.00000000       0.000
   0.04654260  0.04654260  0.00000000       0.000
   0.04188834  0.04188834  0.00000000       0.000
   0.03723408  0.03723408  0.00000000       0.000
   0.03257982  0.03257982  0.00000000       0.000
   0.02792556  0.02792556  0.00000000       0.000
   0.02327130  0.02327130  0.00000000       0.000
   0.01861704  0.01861704  0.00000000       0.000
   0.01396278  0.01396278  0.00000000       0.000
   0.00930852  0.00930852  0.00000000       0.000
   0.00465426  0.00465426  0.00000000       0.000
   0.00000000  0.00000000  0.00000000       0.000
   0.00000000  0.00000000  0.00000000       0.000
   0.00376773  0.00376773  0.00376773       0.000
   0.00753547  0.00753547  0.00753547       0.000
   0.01130320  0.01130320  0.01130320       0.000
   0.01507094  0.01507094  0.01507094       0.000
   0.01883867  0.01883867  0.01883867       0.000
   0.02260641  0.02260641  0.02260641       0.000
   0.02637414  0.02637414  0.02637414       0.000
   0.03014187  0.03014187  0.03014187       0.000
   0.03390961  0.03390961  0.03390961       0.000
   0.03767734  0.03767734  0.03767734       0.000
   0.04144508  0.04144508  0.04144508       0.000
   0.04521281  0.04521281  0.04521281       0.000
   0.04898055  0.04898055  0.04898055       0.000
   0.05274828  0.05274828  0.05274828       0.000
   0.05651601  0.05651601  0.05651601       0.000
   0.06028375  0.06028375  0.06028375       0.000
   0.06405148  0.06405148  0.06405148       0.000
   0.06781922  0.06781922  0.06781922       0.000
   0.07158695  0.07158695  0.07158695       0.000
   0.07535469  0.07535469  0.07535469       0.000
   0.07912242  0.07912242  0.07912242       0.000
   0.08289015  0.08289015  0.08289015       0.000
   0.08665789  0.08665789  0.08665789       0.000
   0.09042562  0.09042562  0.09042562       0.000
   0.09419336  0.09419336  0.09419336       0.000
   0.09796109  0.09796109  0.09796109       0.000
   0.10172882  0.10172882  0.10172882       0.000
   0.10549656  0.10549656  0.10549656       0.000
   0.10926429  0.10926429  0.10926429       0.000
   0.11303203  0.11303203  0.11303203       0.000
   0.11679976  0.11679976  0.11679976       0.000
   0.12056750  0.12056750  0.12056750       0.000
   0.12433523  0.12433523  0.12433523       0.000
   0.12810296  0.12810296  0.12810296       0.000
   0.13187070  0.13187070  0.13187070       0.000
   0.13563843  0.13563843  0.13563843       0.000
   0.13940617  0.13940617  0.13940617       0.000
   0.14317390  0.14317390  0.14317390       0.000
   0.14694164  0.14694164  0.14694164       0.000
   0.15070937  0.15070937  0.15070937       0.000
   0.15447710  0.15447710  0.15447710       0.000
   0.15824484  0.15824484  0.15824484       0.000
   0.15824484  0.15824484  0.15824484       0.000
   0.15359058  0.15824484  0.15359058       0.000
   0.14893632  0.15824484  0.14893632       0.000
   0.14428206  0.15824484  0.14428206       0.000
   0.13962780  0.15824484  0.13962780       0.000
   0.13497354  0.15824484  0.13497354       0.000
   0.13031928  0.15824484  0.13031928       0.000
   0.12566502  0.15824484  0.12566502       0.000
   0.12101076  0.15824484  0.12101076       0.000
   0.11635650  0.15824484  0.11635650       0.000
   0.11170224  0.15824484  0.11170224       0.000
   0.10704798  0.15824484  0.10704798       0.000
   0.10239372  0.15824484  0.10239372       0.000
   0.09773946  0.15824484  0.09773946       0.000
   0.09308520  0.15824484  0.09308520       0.000
   0.08843094  0.15824484  0.08843094       0.000
   0.08377668  0.15824484  0.08377668       0.000
   0.07912242  0.15824484  0.07912242       0.000
   0.07446816  0.15824484  0.07446816       0.000
   0.06981390  0.15824484  0.06981390       0.000
   0.06515964  0.15824484  0.06515964       0.000
   0.06050538  0.15824484  0.06050538       0.000
   0.05585112  0.15824484  0.05585112       0.000
   0.05119686  0.15824484  0.05119686       0.000
   0.04654260  0.15824484  0.04654260       0.000
   0.04188834  0.15824484  0.04188834       0.000
   0.03723408  0.15824484  0.03723408       0.000
   0.03257982  0.15824484  0.03257982       0.000
   0.02792556  0.15824484  0.02792556       0.000
   0.02327130  0.15824484  0.02327130       0.000
   0.01861704  0.15824484  0.01861704       0.000
   0.01396278  0.15824484  0.01396278       0.000
   0.00930852  0.15824484  0.00930852       0.000
   0.00465426  0.15824484  0.00465426       0.000
[...]
     59      79.6509      0.00000
     60      80.1503      0.00000
     61      81.5434      0.00000
     62      82.1625      0.00000
     63      84.2948      0.00000
     64      87.4870      0.00000

 k-point   215 :       0.5000    0.5000    0.1087
  band No.  band energies     occupation 
      1     -33.9347      2.00000
      2     -15.9402      2.00000
      3     -15.9402      2.00000
      4     -13.8626      2.00000
      5      -9.2188      2.00000
      6       2.4942      2.00000
      7       2.4942      2.00000
      8       3.6922      2.00000
      9       6.9880      0.00000
     10       8.9531      0.00000
     11      10.0196      0.00000
     12      10.0200      0.00000
     13      15.9454      0.00000
     14      20.0040      0.00000
     15      20.0043      0.00000
     16      21.1109      0.00000
     17      23.1437      0.00000
     18      23.1440      0.00000
     19      25.7960      0.00000
     20      30.9301      0.00000
     21      32.5685      0.00000
     22      32.5702      0.00000
     23      32.8019      0.00000
     24      35.3018      0.00000
     25      35.3022      0.00000
     26      35.5487      0.00000
     27      36.8944      0.00000
     28      39.6658      0.00000
     29      41.5958      0.00000
     30      43.2827      0.00000
     31      43.2930      0.00000
     32      43.8420      0.00000
     33      44.5703      0.00000
     34      45.6337      0.00000
     35      48.2109      0.00000
     36      48.2120      0.00000
     37      51.5812      0.00000
     38      51.9512      0.00000
     39      53.7424      0.00000
     40      53.7442      0.00000
     41      54.1768      0.00000
     42      56.8108      0.00000
     43      58.2373      0.00000
     44      58.2528      0.00000
     45      58.5110      0.00000
     46      61.5711      0.00000
     47      61.7682      0.00000
     48      61.7762      0.00000
     49      66.8377      0.00000
     50      66.8879      0.00000
     51      67.8197      0.00000
     52      69.7003      0.00000
     53      70.9656      0.00000
     54      71.2711      0.00000
     55      72.8470      0.00000
     56      75.8376      0.00000
     57      78.9689      0.00000
     58      79.4243      0.00000
     59      79.6834      0.00000
     60      80.6996      0.00000
     61      81.9190      0.00000
     62      82.2916      0.00000
     63      83.6801      0.00000
     64      86.1752      0.00000

 k-point   216 :       0.5000    0.5000    0.0870
  band No.  band energies     occupation 
      1     -33.9445      2.00000
      2     -15.9564      2.00000
      3     -15.9564      2.00000
      4     -13.7772      2.00000
      5      -9.2515      2.00000
      6       2.6788      2.00000
      7       2.6788      2.00000
      8       4.0185      2.00000
      9       6.7339      0.00000
     10       8.6162      0.00000
     11       9.8355      0.00000
     12       9.8358      0.00000
     13      15.9311      0.00000
     14      20.0639      0.00000
     15      20.0643      0.00000
     16      21.1041      0.00000
     17      22.9499      0.00000
     18      22.9501      0.00000
     19      25.6884      0.00000
     20      31.1405      0.00000
     21      32.7458      0.00000
     22      32.7944      0.00000
     23      32.7981      0.00000
     24      35.0899      0.00000
     25      35.0935      0.00000
     26      35.9669      0.00000
     27      36.7144      0.00000
     28      40.1524      0.00000
     29      42.4021      0.00000
     30      43.5091      0.00000
     31      43.5193      0.00000
     32      43.5613      0.00000
     33      44.9715      0.00000
     34      45.1031      0.00000
     35      47.6816      0.00000
     36      47.6835      0.00000
     37      50.8653      0.00000
     38      52.5593      0.00000
     39      53.1539      0.00000
     40      54.9495      0.00000
     41      54.9686      0.00000
     42      56.6596      0.00000
     43      58.0959      0.00000
     44      58.1003      0.00000
     45      58.2347      0.00000
     46      61.2984      0.00000
     47      62.1330      0.00000
     48      62.2895      0.00000
     49      65.5615      0.00000
     50      65.7060      0.00000
     51      68.1802      0.00000
     52      69.3059      0.00000
     53      70.3335      0.00000
     54      71.6605      0.00000
     55      72.3394      0.00000
     56      75.2868      0.00000
     57      79.5984      0.00000
     58      80.4698      0.00000
     59      80.8149      0.00000
     60      81.5475      0.00000
     61      83.3985      0.00000
     62      84.0183      0.00000
     63      85.5603      0.00000
     64      88.4340      0.00000

 k-point   217 :       0.5000    0.5000    0.0652
  band No.  band energies     occupation 
      1     -33.9523      2.00000
      2     -15.9693      2.00000
      3     -15.9693      2.00000
      4     -13.7082      2.00000
      5      -9.2772      2.00000
      6       2.8331      2.00000
      7       2.8331      2.00000
      8       4.3163      2.00000
      9       6.5333      0.00000
     10       8.3098      0.00000
     11       9.6822      0.00000
     12       9.6823      0.00000
     13      15.9199      0.00000
     14      20.1111      0.00000
     15      20.1114      0.00000
     16      21.0961      0.00000
     17      22.7977      0.00000
     18      22.7979      0.00000
     19      25.6051      0.00000
     20      31.3185      0.00000
     21      32.7068      0.00000
     22      33.0262      0.00000
     23      33.0385      0.00000
     24      34.8521      0.00000
     25      34.8561      0.00000
     26      36.3341      0.00000
     27      36.5594      0.00000
     28      40.6534      0.00000
     29      42.5960      0.00000
     30      43.7534      0.00000
     31      43.7538      0.00000
     32      43.9174      0.00000
     33      44.3345      0.00000
     34      45.6460      0.00000
     35      47.1918      0.00000
     36      47.1921      0.00000
     37      50.2204      0.00000
     38      52.1239      0.00000
     39      53.0287      0.00000
     40      56.1408      0.00000
     41      56.1418      0.00000
     42      56.5409      0.00000
     43      58.0281      0.00000
     44      58.0558      0.00000
     45      58.0972      0.00000
     46      61.0734      0.00000
     47      62.4413      0.00000
     48      62.4556      0.00000
     49      64.3471      0.00000
     50      64.3528      0.00000
     51      68.6915      0.00000
     52      69.3222      0.00000
     53      69.8438      0.00000
     54      70.0891      0.00000
     55      72.4819      0.00000
     56      75.5501      0.00000
     57      79.5069      0.00000
     58      80.6149      0.00000
     59      81.6200      0.00000
     60      82.7775      0.00000
     61      84.0504      0.00000
     62      85.6202      0.00000
     63      85.6970      0.00000
     64      86.0569      0.00000

 k-point   218 :       0.5000    0.5000    0.0435
  band No.  band energies     occupation 
      1     -33.9580      2.00000
      2     -15.9786      2.00000
      3     -15.9786      2.00000
      4     -13.6575      2.00000
      5      -9.2957      2.00000
      6       2.9498      2.00000
      7       2.9499      2.00000
      8       4.5646      0.83347
      9       6.3883      0.00000
     10       8.0552      0.00000
     11       9.5659      0.00000
     12       9.5663      0.00000
     13      15.9116      0.00000
     14      20.1445      0.00000
     15      20.1453      0.00000
     16      21.0892      0.00000
     17      22.6890      0.00000
     18      22.6894      0.00000
     19      25.5474      0.00000
     20      31.4584      0.00000
     21      32.6554      0.00000
     22      33.2794      0.00000
     23      33.2813      0.00000
     24      34.6142      0.00000
     25      34.6152      0.00000
     26      36.4395      0.00000
     27      36.6216      0.00000
     28      41.1623      0.00000
     29      42.3321      0.00000
     30      43.7446      0.00000
     31      43.9989      0.00000
     32      43.9996      0.00000
     33      44.7864      0.00000
     34      46.1639      0.00000
     35      46.7662      0.00000
     36      46.7727      0.00000
     37      49.6500      0.00000
     38      51.0758      0.00000
     39      53.4747      0.00000
     40      56.5931      0.00000
     41      57.2220      0.00000
     42      57.2643      0.00000
     43      57.9832      0.00000
     44      58.0310      0.00000
     45      58.0330      0.00000
     46      60.9543      0.00000
     47      62.0702      0.00000
     48      62.1865      0.00000
     49      63.4944      0.00000
     50      63.5012      0.00000
     51      69.0338      0.00000
     52      69.2155      0.00000
     53      69.8059      0.00000
     54      70.3252      0.00000
     55      73.3912      0.00000
     56      75.2034      0.00000
     57      80.2259      0.00000
     58      81.7863      0.00000
     59      81.9083      0.00000
     60      83.0049      0.00000
     61      84.5364      0.00000
     62      84.6220      0.00000
     63      87.0465      0.00000
     64      88.9401      0.00000

 k-point   219 :       0.5000    0.5000    0.0217
  band No.  band energies     occupation 
      1     -33.9614      2.00000
      2     -15.9842      2.00000
      3     -15.9842      2.00000
      4     -13.6265      2.00000
      5      -9.3069      2.00000
      6       3.0229      2.00000
      7       3.0230      2.00000
      8       4.7344      0.00000
      9       6.3006      0.00000
     10       7.8814      0.00000
     11       9.4934      0.00000
     12       9.4937      0.00000
     13      15.9067      0.00000
     14      20.1647      0.00000
     15      20.1652      0.00000
     16      21.0838      0.00000
     17      22.6244      0.00000
     18      22.6244      0.00000
     19      25.5109      0.00000
     20      31.5435      0.00000
     21      32.6339      0.00000
     22      33.4948      0.00000
     23      33.4948      0.00000
     24      34.3998      0.00000
     25      34.4006      0.00000
     26      36.3575      0.00000
     27      36.8184      0.00000
     28      41.6407      0.00000
     29      42.0991      0.00000
     30      43.1950      0.00000
     31      44.2077      0.00000
     32      44.2130      0.00000
     33      45.5330      0.00000
     34      46.4689      0.00000
     35      46.4842      0.00000
     36      46.5408      0.00000
     37      49.2085      0.00000
     38      50.3216      0.00000
     39      53.7778      0.00000
     40      56.3639      0.00000
     41      57.8644      0.00000
     42      57.9523      0.00000
     43      58.2369      0.00000
     44      58.5854      0.00000
     45      58.5897      0.00000
     46      60.9244      0.00000
     47      61.1017      0.00000
     48      61.1676      0.00000
     49      63.3117      0.00000
     50      63.4124      0.00000
     51      69.1215      0.00000
     52      69.2565      0.00000
     53      69.8312      0.00000
     54      70.4583      0.00000
     55      71.3717      0.00000
     56      74.4978      0.00000
     57      79.0427      0.00000
     58      82.8352      0.00000
     59      83.8840      0.00000
     60      84.0950      0.00000
     61      84.7438      0.00000
     62      84.7772      0.00000
     63      85.7648      0.00000
     64      90.0259      0.00000

 k-point   220 :       0.5000    0.5000    0.0000
  band No.  band energies     occupation 
      1     -33.9625      2.00000
      2     -15.9861      2.00000
      3     -15.9861      2.00000
      4     -13.6160      2.00000
      5      -9.3107      2.00000
      6       3.0479      2.00000
      7       3.0481      2.00000
      8       4.7958      0.00000
      9       6.2713      0.00000
     10       7.8188      0.00000
     11       9.4687      0.00000
     12       9.4691      0.00000
     13      15.9052      0.00000
     14      20.1710      0.00000
     15      20.1712      0.00000
     16      21.0839      0.00000
     17      22.6015      0.00000
     18      22.6018      0.00000
     19      25.5002      0.00000
     20      31.5714      0.00000
     21      32.6275      0.00000
     22      33.5968      0.00000
     23      33.5976      0.00000
     24      34.2963      0.00000
     25      34.2997      0.00000
     26      36.3291      0.00000
     27      36.8880      0.00000
     28      41.9016      0.00000
     29      42.0321      0.00000
     30      42.9268      0.00000
     31      44.2911      0.00000
     32      44.2964      0.00000
     33      45.8696      0.00000
     34      46.3451      0.00000
     35      46.3456      0.00000
     36      46.7089      0.00000
     37      49.0196      0.00000
     38      49.9493      0.00000
     39      53.8911      0.00000
     40      56.3641      0.00000
     41      57.8202      0.00000
     42      57.8223      0.00000
     43      57.9443      0.00000
     44      59.6634      0.00000
     45      59.8991      0.00000
     46      60.1166      0.00000
     47      60.2692      0.00000
     48      60.7529      0.00000
     49      63.1719      0.00000
     50      63.3894      0.00000
     51      69.1651      0.00000
     52      69.4065      0.00000
     53      69.9992      0.00000
     54      70.1203      0.00000
     55      71.7077      0.00000
     56      74.4009      0.00000
     57      78.8367      0.00000
     58      81.1515      0.00000
     59      84.4341      0.00000
     60      84.5037      0.00000
     61      84.7577      0.00000
     62      85.2831      0.00000
     63      86.9078      0.00000
     64      87.4213      0.00000


--------------------------------------------------------------------------------------------------------


 soft charge-density along one line, spin component           1
         0         1         2         3         4         5         6         7         8         9
 total charge-density along one line
 
 pseudopotential strength for first ion, spin component:           1
 11.861  14.208  -0.000  -0.000  -0.000  -0.000  -0.000  -0.000
 14.208  17.019  -0.000  -0.000  -0.000  -0.000  -0.000  -0.000
 -0.000  -0.000  -5.403  -0.000  -0.000  -7.068  -0.000  -0.000
 -0.000  -0.000  -0.000  -5.403  -0.000  -0.000  -7.068  -0.000
 -0.000  -0.000  -0.000  -0.000  -5.403  -0.000  -0.000  -7.068
 -0.000  -0.000  -7.068  -0.000  -0.000  -8.495  -0.000  -0.000
 -0.000  -0.000  -0.000  -7.068  -0.000  -0.000  -8.495  -0.000
 -0.000  -0.000  -0.000  -0.000  -7.068  -0.000  -0.000  -8.495
 total augmentation occupancy for first ion, spin component:           1
  2.000   0.000   0.000   0.000   0.000   0.000   0.000   0.000
  0.000   0.000   0.000   0.000   0.000   0.000   0.000   0.000
  0.000   0.000   1.000   0.000   0.000   0.000   0.000   0.000
  0.000   0.000   0.000   1.000   0.000   0.000   0.000   0.000
  0.000   0.000   0.000   0.000   1.000   0.000   0.000   0.000
  0.000   0.000   0.000   0.000   0.000   0.000   0.000   0.000
  0.000   0.000   0.000   0.000   0.000   0.000   0.000   0.000
  0.000   0.000   0.000   0.000   0.000   0.000   0.000   0.000


------------------------ aborting loop because EDIFF is reached ----------------------------------------


 


 total charge     
 
# of ion       s       p       d       tot
------------------------------------------
    1        1.248   2.365   0.000   3.613
    2        2.079   5.824   0.799   8.702
--------------------------------------------------
tot          3.327   8.189   0.799  12.316
 
    CHARGE:  cpu time    0.0506: real time    0.2170
    FORLOC:  cpu time    0.0004: real time    0.0005
    FORHF :  cpu time  223.6709: real time  223.6859
    FORNL :  cpu time    0.1274: real time    0.1276
    FORCOR:  cpu time    0.1305: real time    0.1311
    FORHAR:  cpu time    0.0018: real time    0.0018
    OFIELD:  cpu time    0.0005: real time    0.0006

 VOLUME and BASIS-vectors are now :
 -----------------------------------------------------------------------------
  energy-cutoff  :      520.00
  volume of cell :       31.54
      direct lattice vectors                 reciprocal lattice vectors
     3.159660714  0.000000000  0.000000000     0.316489677  0.000000000  0.000000000
     0.000000000  3.159660714  0.000000000     0.000000000  0.316489677  0.000000000
     0.000000000  0.000000000  3.159660714     0.000000000  0.000000000  0.316489677

  length of vectors
     3.159660714  3.159660714  3.159660714     0.316489677  0.316489677  0.316489677


 FORCES acting on ions
    electron-ion (+dipol)            ewald-force                    non-local-force                 convergence-correction
 -----------------------------------------------------------------------------------------------
   0.256E-04 0.252E-04 0.229E-04   0.361E-14 0.531E-15 0.160E-14   0.000E+00 0.000E+00 0.000E+00   -.117E-04 -.115E-04 -.105E-04
   -.235E-05 -.181E-05 -.182E-05   -.231E-14 -.160E-14 -.175E-14   0.000E+00 0.000E+00 0.000E+00   0.186E-05 0.142E-05 0.142E-05
 -----------------------------------------------------------------------------------------------
   0.233E-04 0.234E-04 0.211E-04   0.130E-14 -.107E-14 -.145E-15   0.000E+00 0.000E+00 0.000E+00   -.979E-05 -.101E-04 -.906E-05
 
 
 POSITION                                       TOTAL-FORCE (eV/Angst)
 -----------------------------------------------------------------------------------
      1.57983      1.57983      1.57983         0.000000      0.000000      0.000000
      0.00000      0.00000      0.00000         0.000000      0.000000      0.000000
 -----------------------------------------------------------------------------------
    total drift:                                0.000014      0.000013      0.000012


--------------------------------------------------------------------------------------------------------



  FREE ENERGIE OF THE ION-ELECTRON SYSTEM (eV)
  ---------------------------------------------------
  free  energy   TOTEN  =       -16.67824504 eV

  energy  without entropy=      -16.67783009  energy(sigma->0) =      -16.67803756
 


--------------------------------------------------------------------------------------------------------


    POTLOK:  cpu time    0.1234: real time    0.1235


--------------------------------------------------------------------------------------------------------


     LOOP+:  cpu time 7599.2299: real time 7601.4932
    4ORBIT:  cpu time    0.0000: real time    0.0000
 


 total charge     
 
# of ion       s       p       d       tot
------------------------------------------
    1        1.248   2.365   0.000   3.613
    2        2.079   5.824   0.799   8.702
--------------------------------------------------
tot          3.327   8.189   0.799  12.316
 

 total amount of memory used by VASP MPI-rank0    52261. kBytes
=======================================================================

   base      :      30000. kBytes
   nonl-proj :       8114. kBytes
   fftplans  :        439. kBytes
   grid      :        203. kBytes
   one-center:         15. kBytes
   HF        :         23. kBytes
   nonlr-proj:        627. kBytes
   wavefun   :      12840. kBytes
 
  
  
 General timing and accounting informations for this job:
 ========================================================
  
                  Total CPU time used (sec):     7634.313
                            User time (sec):     7631.433
                          System time (sec):        2.880
                         Elapsed time (sec):     7639.545
  
                   Maximum memory used (kb):      265888.
                   Average memory used (kb):           0.
  
                          Minor page faults:       341584
                          Major page faults:         2758
                 Voluntary context switches:         4365
