 vasp.5.4.1 24Jun15 (build Nov 23 2015 09:58:10) complex                        
  
 executed on             LinuxIFC date 2022.12.22  15:53:40
 running on   96 total cores
 distrk:  each k-point on   96 cores,    1 groups
 distr:  one band on NCORES_PER_BAND=  12 cores,    8 groups


--------------------------------------------------------------------------------------------------------


 INCAR:
 POTCAR:    PAW_PBE Pr_3 07Sep2000                
 POTCAR:    PAW_PBE Se 06Sep2000                  
 POTCAR:    PAW_PBE O 08Apr2002                   
 POTCAR:    PAW_PBE Pr_3 07Sep2000                
   VRHFIN =Pr : [core=Xe4]                                                      
   LEXCH  = PE                                                                  
   EATOM  =   912.8502 eV,   67.0926 Ry                                         
                                                                                
   TITEL  = PAW_PBE Pr_3 07Sep2000                                              
   LULTRA =        F    use ultrasoft PP ?                                      
   IUNSCR =        1    unscreen: 0-lin 1-nonlin 2-no                           
   RPACOR =    2.400    partial core radius                                     
   POMASS =  140.907; ZVAL   =   11.000    mass and valenz                      
   RCORE  =    2.800    outmost cutoff radius                                   
   RWIGS  =    3.100; RWIGS  =    1.640    wigner-seitz radius (au A)           
   ENMAX  =  181.719; ENMIN  =  136.289 eV                                      
   RCLOC  =    2.419    cutoff for local pot                                    
   LCOR   =        T    correct aug charges                                     
   LPAW   =        T    paw PP                                                  
   EAUG   =  303.718                                                            
   DEXC   =    0.000                                                            
   RMAX   =    2.867    core radius for proj-oper                               
   RAUG   =    1.300    factor for augmentation sphere                          
   RDEP   =    2.816    radius for radial grids                                 
   RDEPT  =    2.395    core radius for aug-charge                              
                                                                                
   Atomic configuration                                                         
   14 entries                                                                   
     n  l   j            E        occ.                                          
     1  0  0.50    -41810.3934   2.0000                                         
     2  0  0.50     -6731.1418   2.0000                                         
     2  1  1.50     -6022.4876   6.0000                                         
     3  0  0.50     -1458.2043   2.0000                                         
     3  1  1.50     -1233.8862   6.0000                                         
     3  2  2.50      -919.2566  10.0000                                         
     4  0  0.50      -295.2681   2.0000                                         
     4  1  1.50      -221.8430   6.0000                                         
     4  2  2.50      -116.8418  10.0000                                         
     4  3  2.50        -6.2311   2.0000                                         
     5  0  0.50       -42.1589   2.0000                                         
     6  0  0.50        -3.8068   2.0000                                         
     5  1  1.50       -23.9655   6.0000                                         
     5  2  2.50        -3.0008   1.0000                                         
   Description                                                                  
     l       E           TYP  RCUT    TYP  RCUT                                 
     0    -42.1589422     23  2.800                                             
     0     -3.8068346     23  2.800                                             
     1    -23.9655307     23  2.800                                             
     1     13.6058260     23  2.800                                             
     2     -3.0008139     23  2.800                                             
     2     -0.1733532     23  2.800                                             
  local pseudopotential read in
  partial core-charges read in
  partial kinetic energy density read in
  atomic valenz-charges read in
  non local Contribution for L=           0  read in
    real space projection operators read in
  non local Contribution for L=           0  read in
    real space projection operators read in
  non local Contribution for L=           1  read in
    real space projection operators read in
  non local Contribution for L=           1  read in
    real space projection operators read in
  non local Contribution for L=           2  read in
    real space projection operators read in
  non local Contribution for L=           2  read in
    real space projection operators read in
    PAW grid and wavefunctions read in
 
   number of l-projection  operators is LMAX  =           6
   number of lm-projection operators is LMMAX =          18
 
 POTCAR:    PAW_PBE Se 06Sep2000                  
   VRHFIN =Se: s2p4                                                             
   LEXCH  = PE                                                                  
   EATOM  =   257.1286 eV,   18.8984 Ry                                         
                                                                                
   TITEL  = PAW_PBE Se 06Sep2000                                                
   LULTRA =        F    use ultrasoft PP ?                                      
   IUNSCR =        1    unscreen: 0-lin 1-nonlin 2-no                           
   RPACOR =    1.900    partial core radius                                     
   POMASS =   78.960; ZVAL   =    6.000    mass and valenz                      
   RCORE  =    2.100    outmost cutoff radius                                   
   RWIGS  =    2.200; RWIGS  =    1.164    wigner-seitz radius (au A)           
   ENMAX  =  211.555; ENMIN  =  158.666 eV                                      
   ICORE  =        3    local potential                                         
   LCOR   =        T    correct aug charges                                     
   LPAW   =        T    paw PP                                                  
   EAUG   =  446.842                                                            
   DEXC   =    0.000                                                            
   RMAX   =    2.147    core radius for proj-oper                               
   RAUG   =    1.300    factor for augmentation sphere                          
   RDEP   =    2.177    radius for radial grids                                 
   RDEPT  =    1.928    core radius for aug-charge                              
                                                                                
   Atomic configuration                                                         
   10 entries                                                                   
     n  l   j            E        occ.                                          
     1  0  0.50    -12503.4787   2.0000                                         
     2  0  0.50     -1606.9547   2.0000                                         
     2  1  1.50     -1413.3140   6.0000                                         
     3  0  0.50      -213.4885   2.0000                                         
     3  1  1.50      -152.9538   6.0000                                         
     3  2  2.50       -53.1221  10.0000                                         
     4  0  0.50       -17.2865   2.0000                                         
     4  1  0.50        -6.5110   4.0000                                         
     4  2  2.50        -6.8029   0.0000                                         
     4  3  2.50        -6.8029   0.0000                                         
   Description                                                                  
     l       E           TYP  RCUT    TYP  RCUT                                 
     0    -17.2865377     23  2.100                                             
     0    -15.3094411     23  2.100                                             
     1     -6.5110275     23  2.100                                             
     1     -0.0695192     23  2.100                                             
     2     -6.8029130     23  2.100                                             
     3     -1.3605826      7  2.100                                             
  local pseudopotential read in
  partial core-charges read in
  partial kinetic energy density read in
  atomic valenz-charges read in
  non local Contribution for L=           0  read in
    real space projection operators read in
  non local Contribution for L=           0  read in
    real space projection operators read in
  non local Contribution for L=           1  read in
    real space projection operators read in
  non local Contribution for L=           1  read in
    real space projection operators read in
  non local Contribution for L=           2  read in
    real space projection operators read in
    PAW grid and wavefunctions read in
 
   number of l-projection  operators is LMAX  =           5
   number of lm-projection operators is LMMAX =          13
 
 POTCAR:    PAW_PBE O 08Apr2002                   
   VRHFIN =O: s2p4                                                              
   LEXCH  = PE                                                                  
   EATOM  =   432.3788 eV,   31.7789 Ry                                         
                                                                                
   TITEL  = PAW_PBE O 08Apr2002                                                 
   LULTRA =        F    use ultrasoft PP ?                                      
   IUNSCR =        1    unscreen: 0-lin 1-nonlin 2-no                           
   RPACOR =    1.200    partial core radius                                     
   POMASS =   16.000; ZVAL   =    6.000    mass and valenz                      
   RCORE  =    1.520    outmost cutoff radius                                   
   RWIGS  =    1.550; RWIGS  =    0.820    wigner-seitz radius (au A)           
   ENMAX  =  400.000; ENMIN  =  300.000 eV                                      
   ICORE  =        2    local potential                                         
   LCOR   =        T    correct aug charges                                     
   LPAW   =        T    paw PP                                                  
   EAUG   =  605.392                                                            
   DEXC   =    0.000                                                            
   RMAX   =    1.553    core radius for proj-oper                               
   RAUG   =    1.300    factor for augmentation sphere                          
   RDEP   =    1.550    radius for radial grids                                 
   RDEPT  =    1.329    core radius for aug-charge                              
                                                                                
   Atomic configuration                                                         
    4 entries                                                                   
     n  l   j            E        occ.                                          
     1  0  0.50      -514.6923   2.0000                                         
     2  0  0.50       -23.9615   2.0000                                         
     2  1  0.50        -9.0305   4.0000                                         
     3  2  1.50        -9.5241   0.0000                                         
   Description                                                                  
     l       E           TYP  RCUT    TYP  RCUT                                 
     0    -23.9615318     23  1.200                                             
     0     -9.5240782     23  1.200                                             
     1     -9.0304911     23  1.520                                             
     1      8.1634956     23  1.520                                             
     2     -9.5240782      7  1.500                                             
  local pseudopotential read in
  partial core-charges read in
  partial kinetic energy density read in
  kinetic energy density of atom read in
  atomic valenz-charges read in
  non local Contribution for L=           0  read in
    real space projection operators read in
  non local Contribution for L=           0  read in
    real space projection operators read in
  non local Contribution for L=           1  read in
    real space projection operators read in
  non local Contribution for L=           1  read in
    real space projection operators read in
    PAW grid and wavefunctions read in
 
   number of l-projection  operators is LMAX  =           4
   number of lm-projection operators is LMMAX =           8
 
  PAW_PBE Pr_3 07Sep2000                :
 energy of atom  1       EATOM= -912.8502
 kinetic energy error for atom=    0.0006 (will be added to EATOM!!)
  PAW_PBE Se 06Sep2000                  :
 energy of atom  2       EATOM= -257.1286
 kinetic energy error for atom=    0.0007 (will be added to EATOM!!)
  PAW_PBE O 08Apr2002                   :
 energy of atom  3       EATOM= -432.3788
 kinetic energy error for atom=    0.0208 (will be added to EATOM!!)
 
 
 POSCAR: Primitive Cell                          
  positions in direct lattice
  No initial velocities read in
 exchange correlation table for  LEXCH =        8
   RHO(1)=    0.500       N(1)  =     2000
   RHO(2)=  100.500       N(2)  =     4000
 


--------------------------------------------------------------------------------------------------------


 ion  position               nearest neighbor table
   1  0.998  0.002  0.000-  10 2.34  10 2.34   9 2.38   8 2.38   7 3.20   7 3.20   4 3.74   3 3.74
                             4 3.74   3 3.74
   2  0.983  0.017  0.500-   8 2.38   9 2.38  11 2.41  11 2.41   5 3.19   5 3.19   6 3.19   6 3.19
                             3 3.74   3 3.74   4 3.74   4 3.74
   3  0.316  0.684  0.238-  10 2.38   8 2.39   8 2.39  11 2.42   5 3.20   5 3.20   7 3.34   7 3.34
                             2 3.74   2 3.74   1 3.74   1 3.74
   4  0.316  0.684  0.762-  10 2.38   9 2.39   9 2.39  11 2.42   6 3.20   6 3.20   7 3.34   7 3.34
                             2 3.74   2 3.74   1 3.74   1 3.74
   5  0.644  0.356  0.352-   6 2.53   2 3.19   2 3.19   3 3.20   3 3.20
   6  0.644  0.356  0.648-   5 2.53   2 3.19   2 3.19   4 3.20   4 3.20
   7  0.686  0.314  0.000-   1 3.20   1 3.20   3 3.34   3 3.34   4 3.34   4 3.34
   8  0.911  0.089  0.244-   1 2.38   2 2.38   3 2.39   3 2.39
   9  0.911  0.089  0.756-   1 2.38   2 2.38   4 2.39   4 2.39
  10  0.411  0.589  0.000-   1 2.34   1 2.34   4 2.38   3 2.38
  11  0.385  0.615  0.500-   2 2.41   2 2.41   4 2.42   3 2.42
 
  LATTYP: Found a base centered orthorhombic cell.
 ALAT       =     4.0684696150
 B/A-ratio  =     3.2331151029
 C/A-ratio  =     2.1008696984
  
  Lattice vectors:
  
 A1 = (   0.0000000000,   2.0342348075,  -6.5769152789)
 A2 = (   0.0000000000,   2.0342348075,   6.5769152789)
 A3 = (   8.5473245331,   0.0000000000,   0.0000000000)


Analysis of symmetry for initial positions (statically):
=====================================================================
 Subroutine PRICEL returns:
 Original cell was already a primitive cell.
 

 Routine SETGRP: Setting up the symmetry group for a 
 base centered orthorhombic supercell.


 Subroutine GETGRP returns: Found  4 space group operations
 (whereof  4 operations were pure point group operations)
 out of a pool of  8 trial point group operations.


The static configuration has the point symmetry C_2v.


Analysis of symmetry for dynamics (positions and initial velocities):
=====================================================================
 Subroutine PRICEL returns:
 Original cell was already a primitive cell.
 

 Routine SETGRP: Setting up the symmetry group for a 
 base centered orthorhombic supercell.


 Subroutine GETGRP returns: Found  4 space group operations
 (whereof  4 operations were pure point group operations)
 out of a pool of  8 trial point group operations.


The dynamic configuration has the point symmetry C_2v.


Analysis of magnetic symmetry:
=====================================================================
 Subroutine PRICEL returns:
 Original cell was already a primitive cell.
 

 Subroutine MAGSYM returns: Found  4 space group operations
 (whereof  4 operations were pure point group operations)
 out of a pool of  4 trial space group operations
 (whereof  4 operations were pure point group operations)
 and found also     1 'primitive' translations


The magnetic configuration has the point symmetry C_2v.
 
 
 KPOINTS: 0.030   9   9   4   75  0.040  165   11 
  k-points in reciprocal lattice
Space group operators:
 irot       det(A)        alpha          n_x          n_y          n_z        tau_x        tau_y        tau_z
    1     1.000000     0.000000     1.000000     0.000000     0.000000     0.000000     0.000000     0.000000
    2    -1.000000   180.000000     1.000000     0.000000     0.000000     0.000000     0.000000     0.000000
    3     1.000000   180.000000     0.000000     0.000000     1.000000     0.000000     0.000000     0.000000
    4    -1.000000   180.000000     0.000000     1.000000     0.000000     0.000000     0.000000     0.000000

 ----------------------------------------------------------------------------- 
|                                                                             |
|           W    W    AA    RRRRR   N    N  II  N    N   GGGG   !!!           |
|           W    W   A  A   R    R  NN   N  II  NN   N  G    G  !!!           |
|           W    W  A    A  R    R  N N  N  II  N N  N  G       !!!           |
|           W WW W  AAAAAA  RRRRR   N  N N  II  N  N N  G  GGG   !            |
|           WW  WW  A    A  R   R   N   NN  II  N   NN  G    G                |
|           W    W  A    A  R    R  N    N  II  N    N   GGGG   !!!           |
|                                                                             |
|      Your generating k-point grid is not commensurate to the symmetry       |
|      of the lattice.  This can cause   slow convergence with respect        |
|      to k-points for HF type calculations                                   |
|      suggested SOLUTIONS:                                                   |
|       ) if not already the case, use automatic k-point generation           |
|       ) shift your grid to Gamma (G) (e.g. required for hex or fcc lattice) |
|                                                                             |
 ----------------------------------------------------------------------------- 

 
 Subroutine IBZKPT_HF returns following result:
 ==============================================
 
 Found    489 k-points in 1st BZ
 the following    489 k-points will be used (e.g. in the exchange kernel)
 Following reciprocal coordinates:   # in IRBZ
  0.000000  0.000000  0.000000    0.00308642   1 t-inv F
  0.111111  0.000000  0.000000    0.00308642   2 t-inv F
  0.222222  0.000000  0.000000    0.00308642   3 t-inv F
  0.333333  0.000000  0.000000    0.00308642   4 t-inv F
  0.444444  0.000000  0.000000    0.00308642   5 t-inv F
  0.111111  0.111111  0.000000    0.00308642   6 t-inv F
  0.222222  0.111111  0.000000    0.00308642   7 t-inv F
  0.333333  0.111111  0.000000    0.00308642   8 t-inv F
  0.444444  0.111111  0.000000    0.00308642   9 t-inv F
 -0.444444  0.111111  0.000000    0.00308642  10 t-inv F
 -0.333333  0.111111  0.000000    0.00308642  11 t-inv F
 -0.222222  0.111111  0.000000    0.00308642  12 t-inv F
 -0.111111  0.111111  0.000000    0.00308642  13 t-inv F
  0.222222  0.222222  0.000000    0.00308642  14 t-inv F
  0.333333  0.222222  0.000000    0.00308642  15 t-inv F
  0.444444  0.222222  0.000000    0.00308642  16 t-inv F
 -0.444444  0.222222  0.000000    0.00308642  17 t-inv F
 -0.333333  0.222222  0.000000    0.00308642  18 t-inv F
 -0.222222  0.222222  0.000000    0.00308642  19 t-inv F
  0.333333  0.333333  0.000000    0.00308642  20 t-inv F
  0.444444  0.333333  0.000000    0.00308642  21 t-inv F
 -0.444444  0.333333  0.000000    0.00308642  22 t-inv F
 -0.333333  0.333333  0.000000    0.00308642  23 t-inv F
  0.444444  0.444444  0.000000    0.00308642  24 t-inv F
 -0.444444  0.444444  0.000000    0.00308642  25 t-inv F
  0.000000  0.000000  0.250000    0.00308642  26 t-inv F
  0.111111  0.000000  0.250000    0.00308642  27 t-inv F
  0.222222  0.000000  0.250000    0.00308642  28 t-inv F
  0.333333  0.000000  0.250000    0.00308642  29 t-inv F
  0.444444  0.000000  0.250000    0.00308642  30 t-inv F
  0.111111  0.111111  0.250000    0.00308642  31 t-inv F
  0.222222  0.111111  0.250000    0.00308642  32 t-inv F
  0.333333  0.111111  0.250000    0.00308642  33 t-inv F
  0.444444  0.111111  0.250000    0.00308642  34 t-inv F
 -0.444444  0.111111  0.250000    0.00308642  35 t-inv F
 -0.333333  0.111111  0.250000    0.00308642  36 t-inv F
 -0.222222  0.111111  0.250000    0.00308642  37 t-inv F
 -0.111111  0.111111  0.250000    0.00308642  38 t-inv F
  0.222222  0.222222  0.250000    0.00308642  39 t-inv F
  0.333333  0.222222  0.250000    0.00308642  40 t-inv F
  0.444444  0.222222  0.250000    0.00308642  41 t-inv F
 -0.444444  0.222222  0.250000    0.00308642  42 t-inv F
 -0.333333  0.222222  0.250000    0.00308642  43 t-inv F
 -0.222222  0.222222  0.250000    0.00308642  44 t-inv F
  0.333333  0.333333  0.250000    0.00308642  45 t-inv F
  0.444444  0.333333  0.250000    0.00308642  46 t-inv F
 -0.444444  0.333333  0.250000    0.00308642  47 t-inv F
 -0.333333  0.333333  0.250000    0.00308642  48 t-inv F
  0.444444  0.444444  0.250000    0.00308642  49 t-inv F
 -0.444444  0.444444  0.250000    0.00308642  50 t-inv F
  0.000000  0.000000  0.500000    0.00308642  51 t-inv F
  0.111111  0.000000  0.500000    0.00308642  52 t-inv F
  0.222222  0.000000  0.500000    0.00308642  53 t-inv F
  0.333333  0.000000  0.500000    0.00308642  54 t-inv F
  0.444444  0.000000  0.500000    0.00308642  55 t-inv F
  0.111111  0.111111  0.500000    0.00308642  56 t-inv F
  0.222222  0.111111  0.500000    0.00308642  57 t-inv F
  0.333333  0.111111  0.500000    0.00308642  58 t-inv F
  0.444444  0.111111  0.500000    0.00308642  59 t-inv F
 -0.444444  0.111111  0.500000    0.00308642  60 t-inv F
 -0.333333  0.111111  0.500000    0.00308642  61 t-inv F
 -0.222222  0.111111  0.500000    0.00308642  62 t-inv F
 -0.111111  0.111111  0.500000    0.00308642  63 t-inv F
  0.222222  0.222222  0.500000    0.00308642  64 t-inv F
  0.333333  0.222222  0.500000    0.00308642  65 t-inv F
  0.444444  0.222222  0.500000    0.00308642  66 t-inv F
 -0.444444  0.222222  0.500000    0.00308642  67 t-inv F
 -0.333333  0.222222  0.500000    0.00308642  68 t-inv F
 -0.222222  0.222222  0.500000    0.00308642  69 t-inv F
  0.333333  0.333333  0.500000    0.00308642  70 t-inv F
  0.444444  0.333333  0.500000    0.00308642  71 t-inv F
 -0.444444  0.333333  0.500000    0.00308642  72 t-inv F
 -0.333333  0.333333  0.500000    0.00308642  73 t-inv F
  0.444444  0.444444  0.500000    0.00308642  74 t-inv F
 -0.444444  0.444444  0.500000    0.00308642  75 t-inv F
  0.000000  0.000000  0.000000    0.00000000  76 t-inv F
 -0.050000  0.050000  0.000000    0.00000000  77 t-inv F
 -0.100000  0.100000  0.000000    0.00000000  78 t-inv F
 -0.150000  0.150000  0.000000    0.00000000  79 t-inv F
 -0.200000  0.200000  0.000000    0.00000000  80 t-inv F
 -0.250000  0.250000  0.000000    0.00000000  81 t-inv F
 -0.300000  0.300000  0.000000    0.00000000  82 t-inv F
 -0.350000  0.350000  0.000000    0.00000000  83 t-inv F
 -0.400000  0.400000  0.000000    0.00000000  84 t-inv F
 -0.450000  0.450000  0.000000    0.00000000  85 t-inv F
 -0.500000  0.500000  0.000000    0.00000000  86 t-inv F
 -0.500000  0.500000  0.000000    0.00000000  87 t-inv F
 -0.485870  0.514130  0.000000    0.00000000  88 t-inv F
 -0.471740  0.528260  0.000000    0.00000000  89 t-inv F
 -0.457609  0.542391  0.000000    0.00000000  90 t-inv F
 -0.443479  0.556521  0.000000    0.00000000  91 t-inv F
 -0.429349  0.570651  0.000000    0.00000000  92 t-inv F
 -0.415219  0.584781  0.000000    0.00000000  93 t-inv F
 -0.401088  0.598912  0.000000    0.00000000  94 t-inv F
 -0.386958  0.613042  0.000000    0.00000000  95 t-inv F
 -0.372828  0.627172  0.000000    0.00000000  96 t-inv F
 -0.358698  0.641302  0.000000    0.00000000  97 t-inv F
 -0.344568  0.655432  0.000000    0.00000000  98 t-inv F
 -0.330437  0.669563  0.000000    0.00000000  99 t-inv F
 -0.316307  0.683693  0.000000    0.00000000 100 t-inv F
 -0.302177  0.697823  0.000000    0.00000000 101 t-inv F
 -0.288047  0.711953  0.000000    0.00000000 102 t-inv F
 -0.273917  0.726083  0.000000    0.00000000 103 t-inv F
  0.273917  0.273917  0.000000    0.00000000 104 t-inv F
  0.260221  0.260221  0.000000    0.00000000 105 t-inv F
  0.246525  0.246525  0.000000    0.00000000 106 t-inv F
  0.232829  0.232829  0.000000    0.00000000 107 t-inv F
  0.219133  0.219133  0.000000    0.00000000 108 t-inv F
  0.205437  0.205437  0.000000    0.00000000 109 t-inv F
  0.191742  0.191742  0.000000    0.00000000 110 t-inv F
  0.178046  0.178046  0.000000    0.00000000 111 t-inv F
  0.164350  0.164350  0.000000    0.00000000 112 t-inv F
  0.150654  0.150654  0.000000    0.00000000 113 t-inv F
  0.136958  0.136958  0.000000    0.00000000 114 t-inv F
  0.123262  0.123262  0.000000    0.00000000 115 t-inv F
  0.109567  0.109567  0.000000    0.00000000 116 t-inv F
  0.095871  0.095871  0.000000    0.00000000 117 t-inv F
  0.082175  0.082175  0.000000    0.00000000 118 t-inv F
  0.068479  0.068479  0.000000    0.00000000 119 t-inv F
  0.054783  0.054783  0.000000    0.00000000 120 t-inv F
  0.041087  0.041087  0.000000    0.00000000 121 t-inv F
  0.027392  0.027392  0.000000    0.00000000 122 t-inv F
  0.013696  0.013696  0.000000    0.00000000 123 t-inv F
  0.000000  0.000000  0.000000    0.00000000 124 t-inv F
  0.000000  0.000000  0.000000    0.00000000 125 t-inv F
  0.000000  0.000000  0.062500    0.00000000 126 t-inv F
  0.000000  0.000000  0.125000    0.00000000 127 t-inv F
  0.000000  0.000000  0.187500    0.00000000 128 t-inv F
  0.000000  0.000000  0.250000    0.00000000 129 t-inv F
  0.000000  0.000000  0.312500    0.00000000 130 t-inv F
  0.000000  0.000000  0.375000    0.00000000 131 t-inv F
  0.000000  0.000000  0.437500    0.00000000 132 t-inv F
  0.000000  0.000000  0.500000    0.00000000 133 t-inv F
  0.000000  0.000000  0.500000    0.00000000 134 t-inv F
  0.013696  0.013696  0.500000    0.00000000 135 t-inv F
  0.027392  0.027392  0.500000    0.00000000 136 t-inv F
  0.041087  0.041087  0.500000    0.00000000 137 t-inv F
  0.054783  0.054783  0.500000    0.00000000 138 t-inv F
  0.068479  0.068479  0.500000    0.00000000 139 t-inv F
  0.082175  0.082175  0.500000    0.00000000 140 t-inv F
  0.095871  0.095871  0.500000    0.00000000 141 t-inv F
  0.109567  0.109567  0.500000    0.00000000 142 t-inv F
  0.123262  0.123262  0.500000    0.00000000 143 t-inv F
  0.136958  0.136958  0.500000    0.00000000 144 t-inv F
  0.150654  0.150654  0.500000    0.00000000 145 t-inv F
  0.164350  0.164350  0.500000    0.00000000 146 t-inv F
  0.178046  0.178046  0.500000    0.00000000 147 t-inv F
  0.191742  0.191742  0.500000    0.00000000 148 t-inv F
  0.205437  0.205437  0.500000    0.00000000 149 t-inv F
  0.219133  0.219133  0.500000    0.00000000 150 t-inv F
  0.232829  0.232829  0.500000    0.00000000 151 t-inv F
  0.246525  0.246525  0.500000    0.00000000 152 t-inv F
  0.260221  0.260221  0.500000    0.00000000 153 t-inv F
  0.273917  0.273917  0.500000    0.00000000 154 t-inv F
 -0.273917  0.726083  0.500000    0.00000000 155 t-inv F
 -0.288047  0.711953  0.500000    0.00000000 156 t-inv F
 -0.302177  0.697823  0.500000    0.00000000 157 t-inv F
 -0.316307  0.683693  0.500000    0.00000000 158 t-inv F
 -0.330437  0.669563  0.500000    0.00000000 159 t-inv F
 -0.344568  0.655432  0.500000    0.00000000 160 t-inv F
 -0.358698  0.641302  0.500000    0.00000000 161 t-inv F
 -0.372828  0.627172  0.500000    0.00000000 162 t-inv F
 -0.386958  0.613042  0.500000    0.00000000 163 t-inv F
 -0.401088  0.598912  0.500000    0.00000000 164 t-inv F
 -0.415219  0.584781  0.500000    0.00000000 165 t-inv F
 -0.429349  0.570651  0.500000    0.00000000 166 t-inv F
 -0.443479  0.556521  0.500000    0.00000000 167 t-inv F
 -0.457609  0.542391  0.500000    0.00000000 168 t-inv F
 -0.471740  0.528260  0.500000    0.00000000 169 t-inv F
 -0.485870  0.514130  0.500000    0.00000000 170 t-inv F
 -0.500000  0.500000  0.500000    0.00000000 171 t-inv F
 -0.500000  0.500000  0.500000    0.00000000 172 t-inv F
 -0.500000  0.500000  0.437500    0.00000000 173 t-inv F
 -0.500000  0.500000  0.375000    0.00000000 174 t-inv F
 -0.500000  0.500000  0.312500    0.00000000 175 t-inv F
 -0.500000  0.500000  0.250000    0.00000000 176 t-inv F
 -0.500000  0.500000  0.187500    0.00000000 177 t-inv F
 -0.500000  0.500000  0.125000    0.00000000 178 t-inv F
 -0.500000  0.500000  0.062500    0.00000000 179 t-inv F
 -0.500000  0.500000  0.000000    0.00000000 180 t-inv F
  0.000000  0.000000  0.000000    0.00000000 181 t-inv F
  0.000000  0.026316  0.000000    0.00000000 182 t-inv F
  0.000000  0.052632  0.000000    0.00000000 183 t-inv F
  0.000000  0.078947  0.000000    0.00000000 184 t-inv F
  0.000000  0.105263  0.000000    0.00000000 185 t-inv F
  0.000000  0.131579  0.000000    0.00000000 186 t-inv F
  0.000000  0.157895  0.000000    0.00000000 187 t-inv F
  0.000000  0.184211  0.000000    0.00000000 188 t-inv F
  0.000000  0.210526  0.000000    0.00000000 189 t-inv F
  0.000000  0.236842  0.000000    0.00000000 190 t-inv F
  0.000000  0.263158  0.000000    0.00000000 191 t-inv F
  0.000000  0.289474  0.000000    0.00000000 192 t-inv F
  0.000000  0.315789  0.000000    0.00000000 193 t-inv F
  0.000000  0.342105  0.000000    0.00000000 194 t-inv F
  0.000000  0.368421  0.000000    0.00000000 195 t-inv F
  0.000000  0.394737  0.000000    0.00000000 196 t-inv F
  0.000000  0.421053  0.000000    0.00000000 197 t-inv F
  0.000000  0.447368  0.000000    0.00000000 198 t-inv F
  0.000000  0.473684  0.000000    0.00000000 199 t-inv F
  0.000000  0.500000  0.000000    0.00000000 200 t-inv F
  0.000000  0.500000  0.000000    0.00000000 201 t-inv F
  0.000000  0.500000  0.062500    0.00000000 202 t-inv F
  0.000000  0.500000  0.125000    0.00000000 203 t-inv F
  0.000000  0.500000  0.187500    0.00000000 204 t-inv F
  0.000000  0.500000  0.250000    0.00000000 205 t-inv F
  0.000000  0.500000  0.312500    0.00000000 206 t-inv F
  0.000000  0.500000  0.375000    0.00000000 207 t-inv F
  0.000000  0.500000  0.437500    0.00000000 208 t-inv F
  0.000000  0.500000  0.500000    0.00000000 209 t-inv F
  0.000000  0.500000  0.500000    0.00000000 210 t-inv F
  0.000000  0.473684  0.500000    0.00000000 211 t-inv F
  0.000000  0.447368  0.500000    0.00000000 212 t-inv F
  0.000000  0.421053  0.500000    0.00000000 213 t-inv F
  0.000000  0.394737  0.500000    0.00000000 214 t-inv F
  0.000000  0.368421  0.500000    0.00000000 215 t-inv F
  0.000000  0.342105  0.500000    0.00000000 216 t-inv F
  0.000000  0.315789  0.500000    0.00000000 217 t-inv F
  0.000000  0.289474  0.500000    0.00000000 218 t-inv F
  0.000000  0.263158  0.500000    0.00000000 219 t-inv F
  0.000000  0.236842  0.500000    0.00000000 220 t-inv F
  0.000000  0.210526  0.500000    0.00000000 221 t-inv F
  0.000000  0.184211  0.500000    0.00000000 222 t-inv F
  0.000000  0.157895  0.500000    0.00000000 223 t-inv F
  0.000000  0.131579  0.500000    0.00000000 224 t-inv F
  0.000000  0.105263  0.500000    0.00000000 225 t-inv F
  0.000000  0.078947  0.500000    0.00000000 226 t-inv F
  0.000000  0.052632  0.500000    0.00000000 227 t-inv F
  0.000000  0.026316  0.500000    0.00000000 228 t-inv F
  0.000000  0.000000  0.500000    0.00000000 229 t-inv F
  0.000000  0.000000  0.500000    0.00000000 230 t-inv F
 -0.050000  0.050000  0.500000    0.00000000 231 t-inv F
 -0.100000  0.100000  0.500000    0.00000000 232 t-inv F
 -0.150000  0.150000  0.500000    0.00000000 233 t-inv F
 -0.200000  0.200000  0.500000    0.00000000 234 t-inv F
 -0.250000  0.250000  0.500000    0.00000000 235 t-inv F
 -0.300000  0.300000  0.500000    0.00000000 236 t-inv F
 -0.350000  0.350000  0.500000    0.00000000 237 t-inv F
 -0.400000  0.400000  0.500000    0.00000000 238 t-inv F
 -0.450000  0.450000  0.500000    0.00000000 239 t-inv F
 -0.500000  0.500000  0.500000    0.00000000 240 t-inv F
  0.000000 -0.111111  0.000000    0.00308642   2 t-inv F
  0.000000 -0.222222  0.000000    0.00308642   3 t-inv F
  0.000000 -0.333333  0.000000    0.00308642   4 t-inv F
  0.000000 -0.444444  0.000000    0.00308642   5 t-inv F
 -0.111111 -0.111111  0.000000    0.00308642   6 t-inv F
 -0.111111 -0.222222  0.000000    0.00308642   7 t-inv F
 -0.111111 -0.333333  0.000000    0.00308642   8 t-inv F
 -0.111111 -0.444444  0.000000    0.00308642   9 t-inv F
 -0.111111  0.444444  0.000000    0.00308642  10 t-inv F
 -0.111111  0.333333  0.000000    0.00308642  11 t-inv F
 -0.111111  0.222222  0.000000    0.00308642  12 t-inv F
 -0.222222 -0.222222  0.000000    0.00308642  14 t-inv F
 -0.222222 -0.333333  0.000000    0.00308642  15 t-inv F
 -0.222222 -0.444444  0.000000    0.00308642  16 t-inv F
 -0.222222  0.444444  0.000000    0.00308642  17 t-inv F
 -0.222222  0.333333  0.000000    0.00308642  18 t-inv F
 -0.333333 -0.333333  0.000000    0.00308642  20 t-inv F
 -0.333333 -0.444444  0.000000    0.00308642  21 t-inv F
 -0.333333  0.444444  0.000000    0.00308642  22 t-inv F
 -0.444444 -0.444444  0.000000    0.00308642  24 t-inv F
  0.000000  0.000000 -0.250000    0.00308642  26 t-inv F
  0.111111  0.000000 -0.250000    0.00308642  27 t-inv F
  0.000000 -0.111111 -0.250000    0.00308642  27 t-inv F
  0.000000 -0.111111  0.250000    0.00308642  27 t-inv F
  0.222222  0.000000 -0.250000    0.00308642  28 t-inv F
  0.000000 -0.222222 -0.250000    0.00308642  28 t-inv F
  0.000000 -0.222222  0.250000    0.00308642  28 t-inv F
  0.333333  0.000000 -0.250000    0.00308642  29 t-inv F
  0.000000 -0.333333 -0.250000    0.00308642  29 t-inv F
  0.000000 -0.333333  0.250000    0.00308642  29 t-inv F
  0.444444  0.000000 -0.250000    0.00308642  30 t-inv F
  0.000000 -0.444444 -0.250000    0.00308642  30 t-inv F
  0.000000 -0.444444  0.250000    0.00308642  30 t-inv F
  0.111111  0.111111 -0.250000    0.00308642  31 t-inv F
 -0.111111 -0.111111 -0.250000    0.00308642  31 t-inv F
 -0.111111 -0.111111  0.250000    0.00308642  31 t-inv F
  0.222222  0.111111 -0.250000    0.00308642  32 t-inv F
 -0.111111 -0.222222 -0.250000    0.00308642  32 t-inv F
 -0.111111 -0.222222  0.250000    0.00308642  32 t-inv F
  0.333333  0.111111 -0.250000    0.00308642  33 t-inv F
 -0.111111 -0.333333 -0.250000    0.00308642  33 t-inv F
 -0.111111 -0.333333  0.250000    0.00308642  33 t-inv F
  0.444444  0.111111 -0.250000    0.00308642  34 t-inv F
 -0.111111 -0.444444 -0.250000    0.00308642  34 t-inv F
 -0.111111 -0.444444  0.250000    0.00308642  34 t-inv F
 -0.444444  0.111111 -0.250000    0.00308642  35 t-inv F
 -0.111111  0.444444 -0.250000    0.00308642  35 t-inv F
 -0.111111  0.444444  0.250000    0.00308642  35 t-inv F
 -0.333333  0.111111 -0.250000    0.00308642  36 t-inv F
 -0.111111  0.333333 -0.250000    0.00308642  36 t-inv F
 -0.111111  0.333333  0.250000    0.00308642  36 t-inv F
 -0.222222  0.111111 -0.250000    0.00308642  37 t-inv F
 -0.111111  0.222222 -0.250000    0.00308642  37 t-inv F
 -0.111111  0.222222  0.250000    0.00308642  37 t-inv F
 -0.111111  0.111111 -0.250000    0.00308642  38 t-inv F
  0.222222  0.222222 -0.250000    0.00308642  39 t-inv F
 -0.222222 -0.222222 -0.250000    0.00308642  39 t-inv F
 -0.222222 -0.222222  0.250000    0.00308642  39 t-inv F
  0.333333  0.222222 -0.250000    0.00308642  40 t-inv F
 -0.222222 -0.333333 -0.250000    0.00308642  40 t-inv F
 -0.222222 -0.333333  0.250000    0.00308642  40 t-inv F
  0.444444  0.222222 -0.250000    0.00308642  41 t-inv F
 -0.222222 -0.444444 -0.250000    0.00308642  41 t-inv F
 -0.222222 -0.444444  0.250000    0.00308642  41 t-inv F
 -0.444444  0.222222 -0.250000    0.00308642  42 t-inv F
 -0.222222  0.444444 -0.250000    0.00308642  42 t-inv F
 -0.222222  0.444444  0.250000    0.00308642  42 t-inv F
 -0.333333  0.222222 -0.250000    0.00308642  43 t-inv F
 -0.222222  0.333333 -0.250000    0.00308642  43 t-inv F
 -0.222222  0.333333  0.250000    0.00308642  43 t-inv F
 -0.222222  0.222222 -0.250000    0.00308642  44 t-inv F
  0.333333  0.333333 -0.250000    0.00308642  45 t-inv F
 -0.333333 -0.333333 -0.250000    0.00308642  45 t-inv F
 -0.333333 -0.333333  0.250000    0.00308642  45 t-inv F
  0.444444  0.333333 -0.250000    0.00308642  46 t-inv F
 -0.333333 -0.444444 -0.250000    0.00308642  46 t-inv F
 -0.333333 -0.444444  0.250000    0.00308642  46 t-inv F
 -0.444444  0.333333 -0.250000    0.00308642  47 t-inv F
 -0.333333  0.444444 -0.250000    0.00308642  47 t-inv F
 -0.333333  0.444444  0.250000    0.00308642  47 t-inv F
 -0.333333  0.333333 -0.250000    0.00308642  48 t-inv F
  0.444444  0.444444 -0.250000    0.00308642  49 t-inv F
 -0.444444 -0.444444 -0.250000    0.00308642  49 t-inv F
 -0.444444 -0.444444  0.250000    0.00308642  49 t-inv F
 -0.444444  0.444444 -0.250000    0.00308642  50 t-inv F
  0.000000 -0.111111 -0.500000    0.00308642  52 t-inv F
  0.000000 -0.222222 -0.500000    0.00308642  53 t-inv F
  0.000000 -0.333333 -0.500000    0.00308642  54 t-inv F
  0.000000 -0.444444 -0.500000    0.00308642  55 t-inv F
 -0.111111 -0.111111 -0.500000    0.00308642  56 t-inv F
 -0.111111 -0.222222 -0.500000    0.00308642  57 t-inv F
 -0.111111 -0.333333 -0.500000    0.00308642  58 t-inv F
 -0.111111 -0.444444 -0.500000    0.00308642  59 t-inv F
 -0.111111  0.444444 -0.500000    0.00308642  60 t-inv F
 -0.111111  0.333333 -0.500000    0.00308642  61 t-inv F
 -0.111111  0.222222 -0.500000    0.00308642  62 t-inv F
 -0.222222 -0.222222 -0.500000    0.00308642  64 t-inv F
 -0.222222 -0.333333 -0.500000    0.00308642  65 t-inv F
 -0.222222 -0.444444 -0.500000    0.00308642  66 t-inv F
 -0.222222  0.444444 -0.500000    0.00308642  67 t-inv F
 -0.222222  0.333333 -0.500000    0.00308642  68 t-inv F
 -0.333333 -0.333333 -0.500000    0.00308642  70 t-inv F
 -0.333333 -0.444444 -0.500000    0.00308642  71 t-inv F
 -0.333333  0.444444 -0.500000    0.00308642  72 t-inv F
 -0.444444 -0.444444 -0.500000    0.00308642  74 t-inv F
 -0.111111  0.000000  0.000000    0.00308642   2 t-inv T
  0.000000  0.111111  0.000000    0.00308642   2 t-inv T
 -0.222222  0.000000  0.000000    0.00308642   3 t-inv T
  0.000000  0.222222  0.000000    0.00308642   3 t-inv T
 -0.333333  0.000000  0.000000    0.00308642   4 t-inv T
  0.000000  0.333333  0.000000    0.00308642   4 t-inv T
 -0.444444  0.000000  0.000000    0.00308642   5 t-inv T
  0.000000  0.444444  0.000000    0.00308642   5 t-inv T
 -0.222222 -0.111111  0.000000    0.00308642   7 t-inv T
  0.111111  0.222222  0.000000    0.00308642   7 t-inv T
 -0.333333 -0.111111  0.000000    0.00308642   8 t-inv T
  0.111111  0.333333  0.000000    0.00308642   8 t-inv T
 -0.444444 -0.111111  0.000000    0.00308642   9 t-inv T
  0.111111  0.444444  0.000000    0.00308642   9 t-inv T
  0.444444 -0.111111  0.000000    0.00308642  10 t-inv T
  0.111111 -0.444444  0.000000    0.00308642  10 t-inv T
  0.333333 -0.111111  0.000000    0.00308642  11 t-inv T
  0.111111 -0.333333  0.000000    0.00308642  11 t-inv T
  0.222222 -0.111111  0.000000    0.00308642  12 t-inv T
  0.111111 -0.222222  0.000000    0.00308642  12 t-inv T
  0.111111 -0.111111  0.000000    0.00308642  13 t-inv T
 -0.333333 -0.222222  0.000000    0.00308642  15 t-inv T
  0.222222  0.333333  0.000000    0.00308642  15 t-inv T
 -0.444444 -0.222222  0.000000    0.00308642  16 t-inv T
  0.222222  0.444444  0.000000    0.00308642  16 t-inv T
  0.444444 -0.222222  0.000000    0.00308642  17 t-inv T
  0.222222 -0.444444  0.000000    0.00308642  17 t-inv T
  0.333333 -0.222222  0.000000    0.00308642  18 t-inv T
  0.222222 -0.333333  0.000000    0.00308642  18 t-inv T
  0.222222 -0.222222  0.000000    0.00308642  19 t-inv T
 -0.444444 -0.333333  0.000000    0.00308642  21 t-inv T
  0.333333  0.444444  0.000000    0.00308642  21 t-inv T
  0.444444 -0.333333  0.000000    0.00308642  22 t-inv T
  0.333333 -0.444444  0.000000    0.00308642  22 t-inv T
  0.333333 -0.333333  0.000000    0.00308642  23 t-inv T
  0.444444 -0.444444  0.000000    0.00308642  25 t-inv T
 -0.111111  0.000000 -0.250000    0.00308642  27 t-inv T
 -0.111111  0.000000  0.250000    0.00308642  27 t-inv T
  0.000000  0.111111  0.250000    0.00308642  27 t-inv T
  0.000000  0.111111 -0.250000    0.00308642  27 t-inv T
 -0.222222  0.000000 -0.250000    0.00308642  28 t-inv T
 -0.222222  0.000000  0.250000    0.00308642  28 t-inv T
  0.000000  0.222222  0.250000    0.00308642  28 t-inv T
  0.000000  0.222222 -0.250000    0.00308642  28 t-inv T
 -0.333333  0.000000 -0.250000    0.00308642  29 t-inv T
 -0.333333  0.000000  0.250000    0.00308642  29 t-inv T
  0.000000  0.333333  0.250000    0.00308642  29 t-inv T
  0.000000  0.333333 -0.250000    0.00308642  29 t-inv T
 -0.444444  0.000000 -0.250000    0.00308642  30 t-inv T
 -0.444444  0.000000  0.250000    0.00308642  30 t-inv T
  0.000000  0.444444  0.250000    0.00308642  30 t-inv T
  0.000000  0.444444 -0.250000    0.00308642  30 t-inv T
 -0.222222 -0.111111 -0.250000    0.00308642  32 t-inv T
 -0.222222 -0.111111  0.250000    0.00308642  32 t-inv T
  0.111111  0.222222  0.250000    0.00308642  32 t-inv T
  0.111111  0.222222 -0.250000    0.00308642  32 t-inv T
 -0.333333 -0.111111 -0.250000    0.00308642  33 t-inv T
 -0.333333 -0.111111  0.250000    0.00308642  33 t-inv T
  0.111111  0.333333  0.250000    0.00308642  33 t-inv T
  0.111111  0.333333 -0.250000    0.00308642  33 t-inv T
 -0.444444 -0.111111 -0.250000    0.00308642  34 t-inv T
 -0.444444 -0.111111  0.250000    0.00308642  34 t-inv T
  0.111111  0.444444  0.250000    0.00308642  34 t-inv T
  0.111111  0.444444 -0.250000    0.00308642  34 t-inv T
  0.444444 -0.111111 -0.250000    0.00308642  35 t-inv T
  0.444444 -0.111111  0.250000    0.00308642  35 t-inv T
  0.111111 -0.444444  0.250000    0.00308642  35 t-inv T
  0.111111 -0.444444 -0.250000    0.00308642  35 t-inv T
  0.333333 -0.111111 -0.250000    0.00308642  36 t-inv T
  0.333333 -0.111111  0.250000    0.00308642  36 t-inv T
  0.111111 -0.333333  0.250000    0.00308642  36 t-inv T
  0.111111 -0.333333 -0.250000    0.00308642  36 t-inv T
  0.222222 -0.111111 -0.250000    0.00308642  37 t-inv T
  0.222222 -0.111111  0.250000    0.00308642  37 t-inv T
  0.111111 -0.222222  0.250000    0.00308642  37 t-inv T
  0.111111 -0.222222 -0.250000    0.00308642  37 t-inv T
  0.111111 -0.111111 -0.250000    0.00308642  38 t-inv T
  0.111111 -0.111111  0.250000    0.00308642  38 t-inv T
 -0.333333 -0.222222 -0.250000    0.00308642  40 t-inv T
 -0.333333 -0.222222  0.250000    0.00308642  40 t-inv T
  0.222222  0.333333  0.250000    0.00308642  40 t-inv T
  0.222222  0.333333 -0.250000    0.00308642  40 t-inv T
 -0.444444 -0.222222 -0.250000    0.00308642  41 t-inv T
 -0.444444 -0.222222  0.250000    0.00308642  41 t-inv T
  0.222222  0.444444  0.250000    0.00308642  41 t-inv T
  0.222222  0.444444 -0.250000    0.00308642  41 t-inv T
  0.444444 -0.222222 -0.250000    0.00308642  42 t-inv T
  0.444444 -0.222222  0.250000    0.00308642  42 t-inv T
  0.222222 -0.444444  0.250000    0.00308642  42 t-inv T
  0.222222 -0.444444 -0.250000    0.00308642  42 t-inv T
  0.333333 -0.222222 -0.250000    0.00308642  43 t-inv T
  0.333333 -0.222222  0.250000    0.00308642  43 t-inv T
  0.222222 -0.333333  0.250000    0.00308642  43 t-inv T
  0.222222 -0.333333 -0.250000    0.00308642  43 t-inv T
  0.222222 -0.222222 -0.250000    0.00308642  44 t-inv T
  0.222222 -0.222222  0.250000    0.00308642  44 t-inv T
 -0.444444 -0.333333 -0.250000    0.00308642  46 t-inv T
 -0.444444 -0.333333  0.250000    0.00308642  46 t-inv T
  0.333333  0.444444  0.250000    0.00308642  46 t-inv T
  0.333333  0.444444 -0.250000    0.00308642  46 t-inv T
  0.444444 -0.333333 -0.250000    0.00308642  47 t-inv T
  0.444444 -0.333333  0.250000    0.00308642  47 t-inv T
  0.333333 -0.444444  0.250000    0.00308642  47 t-inv T
  0.333333 -0.444444 -0.250000    0.00308642  47 t-inv T
  0.333333 -0.333333 -0.250000    0.00308642  48 t-inv T
  0.333333 -0.333333  0.250000    0.00308642  48 t-inv T
  0.444444 -0.444444 -0.250000    0.00308642  50 t-inv T
  0.444444 -0.444444  0.250000    0.00308642  50 t-inv T
 -0.111111  0.000000 -0.500000    0.00308642  52 t-inv T
  0.000000  0.111111  0.500000    0.00308642  52 t-inv T
 -0.222222  0.000000 -0.500000    0.00308642  53 t-inv T
  0.000000  0.222222  0.500000    0.00308642  53 t-inv T
 -0.333333  0.000000 -0.500000    0.00308642  54 t-inv T
  0.000000  0.333333  0.500000    0.00308642  54 t-inv T
 -0.444444  0.000000 -0.500000    0.00308642  55 t-inv T
  0.000000  0.444444  0.500000    0.00308642  55 t-inv T
 -0.222222 -0.111111 -0.500000    0.00308642  57 t-inv T
  0.111111  0.222222  0.500000    0.00308642  57 t-inv T
 -0.333333 -0.111111 -0.500000    0.00308642  58 t-inv T
  0.111111  0.333333  0.500000    0.00308642  58 t-inv T
 -0.444444 -0.111111 -0.500000    0.00308642  59 t-inv T
  0.111111  0.444444  0.500000    0.00308642  59 t-inv T
  0.444444 -0.111111 -0.500000    0.00308642  60 t-inv T
  0.111111 -0.444444  0.500000    0.00308642  60 t-inv T
  0.333333 -0.111111 -0.500000    0.00308642  61 t-inv T
  0.111111 -0.333333  0.500000    0.00308642  61 t-inv T
  0.222222 -0.111111 -0.500000    0.00308642  62 t-inv T
  0.111111 -0.222222  0.500000    0.00308642  62 t-inv T
  0.111111 -0.111111 -0.500000    0.00308642  63 t-inv T
 -0.333333 -0.222222 -0.500000    0.00308642  65 t-inv T
  0.222222  0.333333  0.500000    0.00308642  65 t-inv T
 -0.444444 -0.222222 -0.500000    0.00308642  66 t-inv T
  0.222222  0.444444  0.500000    0.00308642  66 t-inv T
  0.444444 -0.222222 -0.500000    0.00308642  67 t-inv T
  0.222222 -0.444444  0.500000    0.00308642  67 t-inv T
  0.333333 -0.222222 -0.500000    0.00308642  68 t-inv T
  0.222222 -0.333333  0.500000    0.00308642  68 t-inv T
  0.222222 -0.222222 -0.500000    0.00308642  69 t-inv T
 -0.444444 -0.333333 -0.500000    0.00308642  71 t-inv T
  0.333333  0.444444  0.500000    0.00308642  71 t-inv T
  0.444444 -0.333333 -0.500000    0.00308642  72 t-inv T
  0.333333 -0.444444  0.500000    0.00308642  72 t-inv T
  0.333333 -0.333333 -0.500000    0.00308642  73 t-inv T
  0.444444 -0.444444 -0.500000    0.00308642  75 t-inv T


--------------------------------------------------------------------------------------------------------




 Dimension of arrays:
   k-points           NKPTS =    240   k-points in BZ     NKDIM =    489   number of bands    NBANDS=     64
   number of dos      NEDOS =    301   number of ions     NIONS =     11
   non local maximal  LDIM  =      6   non local SUM 2l+1 LMDIM =     18
   total plane-waves  NPLWV = 186624
   max r-space proj   IRMAX =      1   max aug-charges    IRDMAX= 508167
   dimension x,y,z NGX =    54 NGY =   54 NGZ =   64
   dimension x,y,z NGXF=   108 NGYF=  108 NGZF=  128
   support grid    NGXF=   216 NGYF=  216 NGZF=  256
   ions per type =               4   3   4
 NGX,Y,Z   is equivalent  to a cutoff of  13.04, 13.04, 12.45 a.u.
 NGXF,Y,Z  is equivalent  to a cutoff of  26.08, 26.08, 24.90 a.u.


 I would recommend the setting:
   dimension x,y,z NGX =    51 NGY =   51 NGZ =   64
 SYSTEM =  band                                    
 POSCAR =  Primitive Cell                          

 Startparameter for this run:
   NWRITE =      2    write-flag & timer
   PREC   = accura    normal or accurate (medium, high low for compatibility)
   ISTART =      1    job   : 0-new  1-cont  2-samecut
   ICHARG =      1    charge: 1-file 2-atom 10-const
   ISPIN  =      2    spin polarized calculation?
   LNONCOLLINEAR =      F non collinear calculations
   LSORBIT =      F    spin-orbit coupling
   INIWAV =      1    electr: 0-lowe 1-rand  2-diag
   LASPH  =      F    aspherical Exc in radial PAW
   METAGGA=      F    non-selfconsistent MetaGGA calc.

 Electronic Relaxation 1
   ENCUT  =  520.0 eV  38.22 Ry    6.18 a.u.  12.80 12.80 15.89*2*pi/ulx,y,z
   ENINI  =  520.0     initial cutoff
   ENAUG  =  605.4 eV  augmentation charge cutoff
   NELM   =    140;   NELMIN=  6; NELMDL=  0     # of ELM steps 
   EDIFF  = 0.1E-03   stopping-criterion for ELM
   LREAL  =      F    real-space projection
   NLSPLINE    = F    spline interpolate recip. space projectors
   LCOMPAT=      F    compatible to vasp.4.4
   GGA_COMPAT  = T    GGA compatible to vasp.4.4-vasp.4.6
   LMAXPAW     = -100 max onsite density
   LMAXMIX     =    2 max onsite mixed and CHGCAR
   VOSKOWN=      0    Vosko Wilk Nusair interpolation
   ROPT   =    0.00000   0.00000   0.00000
 Ionic relaxation
   EDIFFG = -.8E-01   stopping-criterion for IOM
   NSW    =      0    number of steps for IOM
   NBLOCK =      1;   KBLOCK =      1    inner block; outer block 
   IBRION =     -1    ionic relax: 0-MD 1-quasi-New 2-CG
   NFREE  =      0    steps in history (QN), initial steepest desc. (CG)
   ISIF   =      2    stress and relaxation
   IWAVPR =     10    prediction:  0-non 1-charg 2-wave 3-comb
   ISYM   =      3    0-nonsym 1-usesym 2-fastsym
   LCORR  =      T    Harris-Foulkes like correction to forces

   POTIM  = 0.0500    time-step for ionic-motion
   TEIN   =    0.0    initial temperature
   TEBEG  =    0.0;   TEEND  =   0.0 temperature during run
   SMASS  =  -3.00    Nose mass-parameter (am)
   estimated Nose-frequenzy (Omega)   =  0.10E-29 period in steps =****** mass=  -0.108E-26a.u.
   SCALEE = 1.0000    scale energy and forces
   NPACO  =    256;   APACO  = 16.0  distance and # of slots for P.C.
   PSTRESS=    0.0 pullay stress

  Mass of Ions in am
   POMASS = 140.91 78.96 16.00
  Ionic Valenz
   ZVAL   =  11.00  6.00  6.00
  Atomic Wigner-Seitz radii
   RWIGS  =  -1.00 -1.00 -1.00
  virtual crystal weights 
   VCA    =   1.00  1.00  1.00
   NELECT =      86.0000    total number of electrons
   NUPDOWN=      -1.0000    fix difference up-down

 DOS related values:
   EMIN   =  10.00;   EMAX   =-10.00  energy-range for DOS
   EFERMI =   0.00
   ISMEAR =     0;   SIGMA  =   0.05  broadening in eV -4-tet -1-fermi 0-gaus

 Electronic relaxation 2 (details)
   IALGO  =     53    algorithm
   LDIAG  =      T    sub-space diagonalisation (order eigenvalues)
   LSUBROT=      F    optimize rotation matrix (better conditioning)
   TURBO    =      0    0=normal 1=particle mesh
   IRESTART =      0    0=no restart 2=restart with 2 vectors
   NREBOOT  =      0    no. of reboots
   NMIN     =      0    reboot dimension
   EREF     =   0.00    reference energy to select bands
   IMIX   =      4    mixing-type and parameters
     AMIX     =   0.10;   BMIX     =  1.20
     AMIX_MAG =   0.40;   BMIX_MAG =  1.20
     AMIN     =   0.10
     WC   =   100.;   INIMIX=   1;  MIXPRE=   1;  MAXMIX= -45

 Intra band minimization:
   WEIMIN = 0.0000     energy-eigenvalue tresh-hold
   EBREAK =  0.39E-06  absolut break condition
   DEPER  =   0.30     relativ break condition  

   TIME   =   0.40     timestep for ELM

  volume/ion in A,a.u.               =      20.79       140.31
  Fermi-wavevector in a.u.,A,eV,Ry     =   1.181625  2.232948 18.996978  1.396239
  Thomas-Fermi vector in A             =   2.317895
 
 Write flags
   LWAVE  =      F    write WAVECAR
   LCHARG =      F    write CHGCAR
   LVTOT  =      F    write LOCPOT, total local potential
   LVHAR  =      F    write LOCPOT, Hartree potential only
   LELF   =      F    write electronic localiz. function (ELF)
   LORBIT =     11    0 simple, 1 ext, 2 COOP (PROOUT)


 Dipole corrections
   LMONO  =      F    monopole corrections only (constant potential shift)
   LDIPOL =      F    correct potential (dipole corrections)
   IDIPOL =      0    1-x, 2-y, 3-z, 4-all directions 
   EPSILON=  1.0000000 bulk dielectric constant

 Exchange correlation treatment:
   GGA     =    --    GGA type
   LEXCH   =     8    internal setting for exchange type
   VOSKOWN=      0    Vosko Wilk Nusair interpolation
   EXXOEP  =     0    0=HF, 1=EXX-LHF (local Hartree Fock) 2=EXX OEP
   LHFCALC =     T    Hartree Fock is set to
   LSYMGRAD=     F    symmetrize gradient (conserves proper symmetry)
   PRECFOCK=normal    Normal, Fast or Accurate (Low or Medium for compatibility)
   LRHFCALC=     F    long range Hartree Fock
   LRSCOR  =     F    long range correlation only (use DFT for short range part)
   LTHOMAS =     F    Thomas Fermi screening in HF
   LMODELHF=     F    short range full HF, long range fraction AEXX
   ENCUT4O =  -1.0   cutoff for four orbital integrals eV
   LMAXFOCK=     4    L truncation for augmentation on plane wave grid
   LMAXFOCKAE=  -1    L truncation for all-electron charge restoration on plane wave grid
   NMAXFOCKAE=   1    number of basis functions for all-electron charge restoration
   LFOCKAEDFT=     F  apply the AE augmentation even for DFT
   NKREDX  =     1    reduce k-point grid by
   NKREDY  =     1    reduce k-point grid by
   NKREDZ  =     1    reduce k-point grid by
   SHIFTRED=     F    shift reduced grid of Gamma
   HFKIDENT=     F    idential grid for each k-point
   ODDONLY =     F    use only odd q-grid points
   EVENONLY=     F    use only even q-grid points
   HFALPHA =   -1.0000 decay constant for conv. correction
   MCALPHA =    0.0000 extent of test-charge in conv. correction in multipole expansion
   AEXX    =    0.2500 exact exchange contribution
   HFSCREEN=    0.2000 screening length (either q_TF or 0.3 A-1)
   HFSCREENC=   0.2000 screening length for correlation (either q_TF or 0.3 A-1)
   HFRCUT  =    0.0000 spherical cutoff for potential kernel
   ALDAX   =    0.7500 LDA exchange part
   AGGAX   =    0.7500 GGA exchange part
   ALDAC   =    1.0000 LDA correlation
   AGGAC   =    1.0000 GGA correlation
   NBANDSGWLOW=     1    first orbital included in HF term
   ENCUTFOCK=  -1.0 apply spherical cutoff to Coloumb kernel
 Linear response parameters
   LEPSILON=     F    determine dielectric tensor
   LRPA    =     F    only Hartree local field effects (RPA)
   LNABLA  =     F    use nabla operator in PAW spheres
   LVEL    =     F    velocity operator in full k-point grid
   LINTERFAST=   F  fast interpolation
   KINTER  =     0    interpolate to denser k-point grid
   CSHIFT  =0.1000    complex shift for real part using Kramers Kronig
   OMEGAMAX=  -1.0    maximum frequency
   DEG_THRESHOLD= 0.2000000E-02 threshold for treating states as degnerate
   RTIME   =    0.100 relaxation time in fs

 Orbital magnetization related:
   ORBITALMAG=     F  switch on orbital magnetization
   LCHIMAG   =     F  perturbation theory with respect to B field
   DQ        =  0.001000  dq finite difference perturbation B field



--------------------------------------------------------------------------------------------------------


 Static calculation
 charge density and potential will be updated during run
 spin polarized calculation
 Conjugate gradient for all bands (Freysoldt, et al. PRB 79, 241103 (2009))
 perform sub-space diagonalisation
    before iterative eigenvector-optimisation
 modified Broyden-mixing scheme, WC =      100.0
 initial mixing is a Kerker type mixing with AMIX =  0.1000 and BMIX =      1.2000
 Hartree-type preconditioning will be used
 using additional bands           21
 reciprocal scheme for non local part
 use partial core corrections
 no Harris-corrections to forces 
 use gradient corrections 
 use of overlap-Matrix (Vanderbilt PP)
 Gauss-broadening in eV      SIGMA  =   0.05


--------------------------------------------------------------------------------------------------------


  energy-cutoff  :      520.00
  volume of cell :      228.71
      direct lattice vectors                 reciprocal lattice vectors
     0.000000000  2.034234808 -6.576915279     0.000000000  0.245792668 -0.076023482
     0.000000000  2.034234808  6.576915279     0.000000000  0.245792668  0.076023482
     8.547324533  0.000000000  0.000000000     0.116995675  0.000000000  0.000000000

  length of vectors
     6.884324646  6.884324646  8.547324533     0.257281179  0.257281179  0.116995675


 
 old parameters found on file WAVECAR:
  energy-cutoff  :      520.00
  volume of cell :      228.71
      direct lattice vectors                 reciprocal lattice vectors
     0.000000000  2.034234808 -6.576915279     0.000000000  0.245792668 -0.076023482
     0.000000000  2.034234808  6.576915279     0.000000000  0.245792668  0.076023482
     8.547324533  0.000000000  0.000000000     0.116995675  0.000000000  0.000000000

  length of vectors

 
 k-points in units of 2pi/SCALE and weight: 0.030   9   9   4   75  0.040  165   11 
   0.00000000  0.00000000  0.00000000       0.003
   0.00000000  0.02731030 -0.00844705       0.012
   0.00000000  0.05462059 -0.01689411       0.012
   0.00000000  0.08193089 -0.02534116       0.012
   0.00000000  0.10924119 -0.03378821       0.012
   0.00000000  0.05462059  0.00000000       0.006
   0.00000000  0.08193089 -0.00844705       0.012
   0.00000000  0.10924119 -0.01689411       0.012
   0.00000000  0.13655148 -0.02534116       0.012
   0.00000000 -0.08193089  0.04223527       0.012
   0.00000000 -0.05462059  0.03378821       0.012
   0.00000000 -0.02731030  0.02534116       0.012
   0.00000000  0.00000000  0.01689411       0.006
   0.00000000  0.10924119  0.00000000       0.006
   0.00000000  0.13655148 -0.00844705       0.012
   0.00000000  0.16386178 -0.01689411       0.012
   0.00000000 -0.05462059  0.05068232       0.012
   0.00000000 -0.02731030  0.04223527       0.012
   0.00000000  0.00000000  0.03378821       0.006
   0.00000000  0.16386178  0.00000000       0.006
   0.00000000  0.19117207 -0.00844705       0.012
   0.00000000 -0.02731030  0.05912937       0.012
   0.00000000  0.00000000  0.05068232       0.006
   0.00000000  0.21848237  0.00000000       0.006
   0.00000000  0.00000000  0.06757643       0.006
   0.02924892  0.00000000  0.00000000       0.006
   0.02924892  0.02731030 -0.00844705       0.025
   0.02924892  0.05462059 -0.01689411       0.025
   0.02924892  0.08193089 -0.02534116       0.025
   0.02924892  0.10924119 -0.03378821       0.025
   0.02924892  0.05462059  0.00000000       0.012
   0.02924892  0.08193089 -0.00844705       0.025
   0.02924892  0.10924119 -0.01689411       0.025
   0.02924892  0.13655148 -0.02534116       0.025
   0.02924892 -0.08193089  0.04223527       0.025
   0.02924892 -0.05462059  0.03378821       0.025
   0.02924892 -0.02731030  0.02534116       0.025
   0.02924892  0.00000000  0.01689411       0.012
   0.02924892  0.10924119  0.00000000       0.012
   0.02924892  0.13655148 -0.00844705       0.025
   0.02924892  0.16386178 -0.01689411       0.025
   0.02924892 -0.05462059  0.05068232       0.025
   0.02924892 -0.02731030  0.04223527       0.025
   0.02924892  0.00000000  0.03378821       0.012
   0.02924892  0.16386178  0.00000000       0.012
   0.02924892  0.19117207 -0.00844705       0.025
   0.02924892 -0.02731030  0.05912937       0.025
   0.02924892  0.00000000  0.05068232       0.012
   0.02924892  0.21848237  0.00000000       0.012
   0.02924892  0.00000000  0.06757643       0.012
   0.05849784  0.00000000  0.00000000       0.003
   0.05849784  0.02731030 -0.00844705       0.012
   0.05849784  0.05462059 -0.01689411       0.012
   0.05849784  0.08193089 -0.02534116       0.012
   0.05849784  0.10924119 -0.03378821       0.012
   0.05849784  0.05462059  0.00000000       0.006
   0.05849784  0.08193089 -0.00844705       0.012
   0.05849784  0.10924119 -0.01689411       0.012
   0.05849784  0.13655148 -0.02534116       0.012
   0.05849784 -0.08193089  0.04223527       0.012
   0.05849784 -0.05462059  0.03378821       0.012
   0.05849784 -0.02731030  0.02534116       0.012
   0.05849784  0.00000000  0.01689411       0.006
   0.05849784  0.10924119  0.00000000       0.006
   0.05849784  0.13655148 -0.00844705       0.012
   0.05849784  0.16386178 -0.01689411       0.012
   0.05849784 -0.05462059  0.05068232       0.012
   0.05849784 -0.02731030  0.04223527       0.012
   0.05849784  0.00000000  0.03378821       0.006
   0.05849784  0.16386178  0.00000000       0.006
   0.05849784  0.19117207 -0.00844705       0.012
   0.05849784 -0.02731030  0.05912937       0.012
   0.05849784  0.00000000  0.05068232       0.006
   0.05849784  0.21848237  0.00000000       0.006
   0.05849784  0.00000000  0.06757643       0.006
   0.00000000  0.00000000  0.00000000       0.000
   0.00000000  0.00000000  0.00760235       0.000
   0.00000000  0.00000000  0.01520470       0.000
   0.00000000  0.00000000  0.02280704       0.000
   0.00000000  0.00000000  0.03040939       0.000
   0.00000000  0.00000000  0.03801174       0.000
   0.00000000  0.00000000  0.04561409       0.000
   0.00000000  0.00000000  0.05321644       0.000
   0.00000000  0.00000000  0.06081879       0.000
   0.00000000  0.00000000  0.06842113       0.000
   0.00000000  0.00000000  0.07602348       0.000
   0.00000000  0.00000000  0.07602348       0.000
   0.00000000  0.00694621  0.07602348       0.000
   0.00000000  0.01389242  0.07602348       0.000
   0.00000000  0.02083862  0.07602348       0.000
   0.00000000  0.02778483  0.07602348       0.000
   0.00000000  0.03473104  0.07602348       0.000
   0.00000000  0.04167725  0.07602348       0.000
   0.00000000  0.04862346  0.07602348       0.000
   0.00000000  0.05556967  0.07602348       0.000
   0.00000000  0.06251587  0.07602348       0.000
   0.00000000  0.06946208  0.07602348       0.000
   0.00000000  0.07640829  0.07602348       0.000
   0.00000000  0.08335450  0.07602348       0.000
   0.00000000  0.09030071  0.07602348       0.000
   0.00000000  0.09724692  0.07602348       0.000
   0.00000000  0.10419312  0.07602348       0.000
   0.00000000  0.11113933  0.07602348       0.000
   0.00000000  0.13465334  0.00000000       0.000
   0.00000000  0.12792067  0.00000000       0.000
   0.00000000  0.12118800  0.00000000       0.000
   0.00000000  0.11445534  0.00000000       0.000
   0.00000000  0.10772267  0.00000000       0.000
   0.00000000  0.10099000  0.00000000       0.000
   0.00000000  0.09425734  0.00000000       0.000
   0.00000000  0.08752467  0.00000000       0.000
   0.00000000  0.08079200  0.00000000       0.000
   0.00000000  0.07405933  0.00000000       0.000
   0.00000000  0.06732667  0.00000000       0.000
   0.00000000  0.06059400  0.00000000       0.000
   0.00000000  0.05386133  0.00000000       0.000
   0.00000000  0.04712867  0.00000000       0.000
   0.00000000  0.04039600  0.00000000       0.000
   0.00000000  0.03366333  0.00000000       0.000
   0.00000000  0.02693067  0.00000000       0.000
   0.00000000  0.02019800  0.00000000       0.000
   0.00000000  0.01346533  0.00000000       0.000
   0.00000000  0.00673267  0.00000000       0.000
   0.00000000  0.00000000  0.00000000       0.000
   0.00000000  0.00000000  0.00000000       0.000
   0.00731223  0.00000000  0.00000000       0.000
   0.01462446  0.00000000  0.00000000       0.000
   0.02193669  0.00000000  0.00000000       0.000
   0.02924892  0.00000000  0.00000000       0.000
   0.03656115  0.00000000  0.00000000       0.000
   0.04387338  0.00000000  0.00000000       0.000
   0.05118561  0.00000000  0.00000000       0.000
   0.05849784  0.00000000  0.00000000       0.000
   0.05849784  0.00000000  0.00000000       0.000
   0.05849784  0.00673267  0.00000000       0.000
   0.05849784  0.01346533  0.00000000       0.000
   0.05849784  0.02019800  0.00000000       0.000
   0.05849784  0.02693067  0.00000000       0.000
   0.05849784  0.03366333  0.00000000       0.000
   0.05849784  0.04039600  0.00000000       0.000
   0.05849784  0.04712867  0.00000000       0.000
   0.05849784  0.05386133  0.00000000       0.000
   0.05849784  0.06059400  0.00000000       0.000
   0.05849784  0.06732667  0.00000000       0.000
   0.05849784  0.07405933  0.00000000       0.000
   0.05849784  0.08079200  0.00000000       0.000
   0.05849784  0.08752467  0.00000000       0.000
   0.05849784  0.09425734  0.00000000       0.000
   0.05849784  0.10099000  0.00000000       0.000
   0.05849784  0.10772267  0.00000000       0.000
   0.05849784  0.11445534  0.00000000       0.000
   0.05849784  0.12118800  0.00000000       0.000
   0.05849784  0.12792067  0.00000000       0.000
   0.05849784  0.13465334  0.00000000       0.000
   0.05849784  0.11113933  0.07602348       0.000
   0.05849784  0.10419312  0.07602348       0.000
   0.05849784  0.09724692  0.07602348       0.000
   0.05849784  0.09030071  0.07602348       0.000
   0.05849784  0.08335450  0.07602348       0.000
   0.05849784  0.07640829  0.07602348       0.000
   0.05849784  0.06946208  0.07602348       0.000
   0.05849784  0.06251587  0.07602348       0.000
   0.05849784  0.05556967  0.07602348       0.000
   0.05849784  0.04862346  0.07602348       0.000
   0.05849784  0.04167725  0.07602348       0.000
   0.05849784  0.03473104  0.07602348       0.000
   0.05849784  0.02778483  0.07602348       0.000
   0.05849784  0.02083862  0.07602348       0.000
   0.05849784  0.01389242  0.07602348       0.000
   0.05849784  0.00694621  0.07602348       0.000
   0.05849784  0.00000000  0.07602348       0.000
   0.05849784  0.00000000  0.07602348       0.000
   0.05118561  0.00000000  0.07602348       0.000
   0.04387338  0.00000000  0.07602348       0.000
   0.03656115  0.00000000  0.07602348       0.000
   0.02924892  0.00000000  0.07602348       0.000
   0.02193669  0.00000000  0.07602348       0.000
   0.01462446  0.00000000  0.07602348       0.000
   0.00731223  0.00000000  0.07602348       0.000
   0.00000000  0.00000000  0.07602348       0.000
   0.00000000  0.00000000  0.00000000       0.000
   0.00000000  0.00646823  0.00200062       0.000
   0.00000000  0.01293646  0.00400124       0.000
   0.00000000  0.01940468  0.00600185       0.000
   0.00000000  0.02587291  0.00800247       0.000
   0.00000000  0.03234114  0.01000309       0.000
   0.00000000  0.03880937  0.01200371       0.000
   0.00000000  0.04527760  0.01400433       0.000
   0.00000000  0.05174582  0.01600494       0.000
   0.00000000  0.05821405  0.01800556       0.000
   0.00000000  0.06468228  0.02000618       0.000
   0.00000000  0.07115051  0.02200680       0.000
   0.00000000  0.07761874  0.02400742       0.000
   0.00000000  0.08408697  0.02600803       0.000
   0.00000000  0.09055519  0.02800865       0.000
   0.00000000  0.09702342  0.03000927       0.000
   0.00000000  0.10349165  0.03200989       0.000
   0.00000000  0.10995988  0.03401051       0.000
   0.00000000  0.11642811  0.03601112       0.000
   0.00000000  0.12289633  0.03801174       0.000
   0.00000000  0.12289633  0.03801174       0.000
   0.00731223  0.12289633  0.03801174       0.000
   0.01462446  0.12289633  0.03801174       0.000
   0.02193669  0.12289633  0.03801174       0.000
   0.02924892  0.12289633  0.03801174       0.000
   0.03656115  0.12289633  0.03801174       0.000
   0.04387338  0.12289633  0.03801174       0.000
   0.05118561  0.12289633  0.03801174       0.000
   0.05849784  0.12289633  0.03801174       0.000
   0.05849784  0.12289633  0.03801174       0.000
   0.05849784  0.11642811  0.03601112       0.000
   0.05849784  0.10995988  0.03401051       0.000
   0.05849784  0.10349165  0.03200989       0.000
   0.05849784  0.09702342  0.03000927       0.000
   0.05849784  0.09055519  0.02800865       0.000
   0.05849784  0.08408697  0.02600803       0.000
   0.05849784  0.07761874  0.02400742       0.000
   0.05849784  0.07115051  0.02200680       0.000
   0.05849784  0.06468228  0.02000618       0.000
   0.05849784  0.05821405  0.01800556       0.000
   0.05849784  0.05174582  0.01600494       0.000
   0.05849784  0.04527760  0.01400433       0.000
   0.05849784  0.03880937  0.01200371       0.000
   0.05849784  0.03234114  0.01000309       0.000
   0.05849784  0.02587291  0.00800247       0.000
   0.05849784  0.01940468  0.00600185       0.000
   0.05849784  0.01293646  0.00400124       0.000
   0.05849784  0.00646823  0.00200062       0.000
   0.05849784  0.00000000  0.00000000       0.000
   0.05849784  0.00000000  0.00000000       0.000
   0.05849784  0.00000000  0.00760235       0.000
   0.05849784  0.00000000  0.01520470       0.000
   0.05849784  0.00000000  0.02280704       0.000
   0.05849784  0.00000000  0.03040939       0.000
   0.05849784  0.00000000  0.03801174       0.000
   0.05849784  0.00000000  0.04561409       0.000
   0.05849784  0.00000000  0.05321644       0.000
   0.05849784  0.00000000  0.06081879       0.000
   0.05849784  0.00000000  0.06842113       0.000
   0.05849784  0.00000000  0.07602348       0.000
 
 k-points in reciprocal lattice and weights: 0.030   9   9   4   75  0.040  165   11 
   0.00000000  0.00000000  0.00000000       0.003
   0.11111111  0.00000000  0.00000000       0.012
   0.22222222  0.00000000  0.00000000       0.012
   0.33333333  0.00000000  0.00000000       0.012
   0.44444444  0.00000000  0.00000000       0.012
   0.11111111  0.11111111  0.00000000       0.006
   0.22222222  0.11111111  0.00000000       0.012
   0.33333333  0.11111111  0.00000000       0.012
   0.44444444  0.11111111  0.00000000       0.012
  -0.44444444  0.11111111  0.00000000       0.012
  -0.33333333  0.11111111  0.00000000       0.012
  -0.22222222  0.11111111  0.00000000       0.012
  -0.11111111  0.11111111  0.00000000       0.006
   0.22222222  0.22222222  0.00000000       0.006
   0.33333333  0.22222222  0.00000000       0.012
   0.44444444  0.22222222  0.00000000       0.012
  -0.44444444  0.22222222  0.00000000       0.012
  -0.33333333  0.22222222  0.00000000       0.012
  -0.22222222  0.22222222  0.00000000       0.006
   0.33333333  0.33333333  0.00000000       0.006
   0.44444444  0.33333333  0.00000000       0.012
  -0.44444444  0.33333333  0.00000000       0.012
  -0.33333333  0.33333333  0.00000000       0.006
   0.44444444  0.44444444  0.00000000       0.006
  -0.44444444  0.44444444  0.00000000       0.006
   0.00000000  0.00000000  0.25000000       0.006
   0.11111111  0.00000000  0.25000000       0.025
   0.22222222  0.00000000  0.25000000       0.025
   0.33333333  0.00000000  0.25000000       0.025
   0.44444444  0.00000000  0.25000000       0.025
   0.11111111  0.11111111  0.25000000       0.012
   0.22222222  0.11111111  0.25000000       0.025
   0.33333333  0.11111111  0.25000000       0.025
   0.44444444  0.11111111  0.25000000       0.025
  -0.44444444  0.11111111  0.25000000       0.025
  -0.33333333  0.11111111  0.25000000       0.025
  -0.22222222  0.11111111  0.25000000       0.025
  -0.11111111  0.11111111  0.25000000       0.012
   0.22222222  0.22222222  0.25000000       0.012
   0.33333333  0.22222222  0.25000000       0.025
   0.44444444  0.22222222  0.25000000       0.025
  -0.44444444  0.22222222  0.25000000       0.025
  -0.33333333  0.22222222  0.25000000       0.025
  -0.22222222  0.22222222  0.25000000       0.012
   0.33333333  0.33333333  0.25000000       0.012
   0.44444444  0.33333333  0.25000000       0.025
  -0.44444444  0.33333333  0.25000000       0.025
  -0.33333333  0.33333333  0.25000000       0.012
   0.44444444  0.44444444  0.25000000       0.012
  -0.44444444  0.44444444  0.25000000       0.012
   0.00000000  0.00000000  0.50000000       0.003
   0.11111111  0.00000000  0.50000000       0.012
   0.22222222  0.00000000  0.50000000       0.012
   0.33333333  0.00000000  0.50000000       0.012
   0.44444444  0.00000000  0.50000000       0.012
   0.11111111  0.11111111  0.50000000       0.006
   0.22222222  0.11111111  0.50000000       0.012
   0.33333333  0.11111111  0.50000000       0.012
   0.44444444  0.11111111  0.50000000       0.012
  -0.44444444  0.11111111  0.50000000       0.012
  -0.33333333  0.11111111  0.50000000       0.012
  -0.22222222  0.11111111  0.50000000       0.012
  -0.11111111  0.11111111  0.50000000       0.006
   0.22222222  0.22222222  0.50000000       0.006
   0.33333333  0.22222222  0.50000000       0.012
   0.44444444  0.22222222  0.50000000       0.012
  -0.44444444  0.22222222  0.50000000       0.012
  -0.33333333  0.22222222  0.50000000       0.012
  -0.22222222  0.22222222  0.50000000       0.006
   0.33333333  0.33333333  0.50000000       0.006
   0.44444444  0.33333333  0.50000000       0.012
  -0.44444444  0.33333333  0.50000000       0.012
  -0.33333333  0.33333333  0.50000000       0.006
   0.44444444  0.44444444  0.50000000       0.006
  -0.44444444  0.44444444  0.50000000       0.006
   0.00000000  0.00000000  0.00000000       0.000
  -0.05000000  0.05000000  0.00000000       0.000
  -0.10000000  0.10000000  0.00000000       0.000
  -0.15000000  0.15000000  0.00000000       0.000
  -0.20000000  0.20000000  0.00000000       0.000
  -0.25000000  0.25000000  0.00000000       0.000
  -0.30000000  0.30000000  0.00000000       0.000
  -0.35000000  0.35000000  0.00000000       0.000
  -0.40000000  0.40000000  0.00000000       0.000
  -0.45000000  0.45000000  0.00000000       0.000
  -0.50000000  0.50000000  0.00000000       0.000
  -0.50000000  0.50000000  0.00000000       0.000
  -0.48586978  0.51413022  0.00000000       0.000
  -0.47173956  0.52826044  0.00000000       0.000
  -0.45760934  0.54239066  0.00000000       0.000
  -0.44347913  0.55652087  0.00000000       0.000
  -0.42934891  0.57065109  0.00000000       0.000
  -0.41521869  0.58478131  0.00000000       0.000
  -0.40108847  0.59891153  0.00000000       0.000
  -0.38695825  0.61304175  0.00000000       0.000
  -0.37282803  0.62717197  0.00000000       0.000
  -0.35869781  0.64130219  0.00000000       0.000
  -0.34456760  0.65543240  0.00000000       0.000
  -0.33043738  0.66956262  0.00000000       0.000
  -0.31630716  0.68369284  0.00000000       0.000
  -0.30217694  0.69782306  0.00000000       0.000
  -0.28804672  0.71195328  0.00000000       0.000
  -0.27391650  0.72608350  0.00000000       0.000
   0.27391650  0.27391650  0.00000000       0.000
   0.26022068  0.26022068  0.00000000       0.000
   0.24652485  0.24652485  0.00000000       0.000
   0.23282903  0.23282903  0.00000000       0.000
   0.21913320  0.21913320  0.00000000       0.000
   0.20543738  0.20543738  0.00000000       0.000
   0.19174155  0.19174155  0.00000000       0.000
   0.17804573  0.17804573  0.00000000       0.000
   0.16434990  0.16434990  0.00000000       0.000
   0.15065408  0.15065408  0.00000000       0.000
   0.13695825  0.13695825  0.00000000       0.000
   0.12326243  0.12326243  0.00000000       0.000
   0.10956660  0.10956660  0.00000000       0.000
   0.09587078  0.09587078  0.00000000       0.000
   0.08217495  0.08217495  0.00000000       0.000
   0.06847913  0.06847913  0.00000000       0.000
   0.05478330  0.05478330  0.00000000       0.000
   0.04108748  0.04108748  0.00000000       0.000
   0.02739165  0.02739165  0.00000000       0.000
   0.01369583  0.01369583  0.00000000       0.000
   0.00000000  0.00000000  0.00000000       0.000
   0.00000000  0.00000000  0.00000000       0.000
   0.00000000  0.00000000  0.06250000       0.000
   0.00000000  0.00000000  0.12500000       0.000
   0.00000000  0.00000000  0.18750000       0.000
   0.00000000  0.00000000  0.25000000       0.000
   0.00000000  0.00000000  0.31250000       0.000
   0.00000000  0.00000000  0.37500000       0.000
   0.00000000  0.00000000  0.43750000       0.000
   0.00000000  0.00000000  0.50000000       0.000
   0.00000000  0.00000000  0.50000000       0.000
   0.01369583  0.01369583  0.50000000       0.000
   0.02739165  0.02739165  0.50000000       0.000
   0.04108748  0.04108748  0.50000000       0.000
   0.05478330  0.05478330  0.50000000       0.000
   0.06847913  0.06847913  0.50000000       0.000
   0.08217495  0.08217495  0.50000000       0.000
   0.09587078  0.09587078  0.50000000       0.000
   0.10956660  0.10956660  0.50000000       0.000
   0.12326243  0.12326243  0.50000000       0.000
   0.13695825  0.13695825  0.50000000       0.000
   0.15065408  0.15065408  0.50000000       0.000
   0.16434990  0.16434990  0.50000000       0.000
   0.17804573  0.17804573  0.50000000       0.000
   0.19174155  0.19174155  0.50000000       0.000
   0.20543738  0.20543738  0.50000000       0.000
   0.21913320  0.21913320  0.50000000       0.000
   0.23282903  0.23282903  0.50000000       0.000
   0.24652485  0.24652485  0.50000000       0.000
   0.26022068  0.26022068  0.50000000       0.000
   0.27391650  0.27391650  0.50000000       0.000
  -0.27391650  0.72608350  0.50000000       0.000
  -0.28804672  0.71195328  0.50000000       0.000
  -0.30217694  0.69782306  0.50000000       0.000
  -0.31630716  0.68369284  0.50000000       0.000
  -0.33043738  0.66956262  0.50000000       0.000
  -0.34456760  0.65543240  0.50000000       0.000
  -0.35869781  0.64130219  0.50000000       0.000
  -0.37282803  0.62717197  0.50000000       0.000
  -0.38695825  0.61304175  0.50000000       0.000
  -0.40108847  0.59891153  0.50000000       0.000
  -0.41521869  0.58478131  0.50000000       0.000
  -0.42934891  0.57065109  0.50000000       0.000
  -0.44347913  0.55652087  0.50000000       0.000
  -0.45760934  0.54239066  0.50000000       0.000
  -0.47173956  0.52826044  0.50000000       0.000
  -0.48586978  0.51413022  0.50000000       0.000
  -0.50000000  0.50000000  0.50000000       0.000
  -0.50000000  0.50000000  0.50000000       0.000
  -0.50000000  0.50000000  0.43750000       0.000
  -0.50000000  0.50000000  0.37500000       0.000
  -0.50000000  0.50000000  0.31250000       0.000
  -0.50000000  0.50000000  0.25000000       0.000
  -0.50000000  0.50000000  0.18750000       0.000
  -0.50000000  0.50000000  0.12500000       0.000
  -0.50000000  0.50000000  0.06250000       0.000
  -0.50000000  0.50000000  0.00000000       0.000
   0.00000000  0.00000000  0.00000000       0.000
   0.00000000  0.02631579  0.00000000       0.000
   0.00000000  0.05263158  0.00000000       0.000
   0.00000000  0.07894737  0.00000000       0.000
   0.00000000  0.10526316  0.00000000       0.000
   0.00000000  0.13157895  0.00000000       0.000
   0.00000000  0.15789474  0.00000000       0.000
   0.00000000  0.18421053  0.00000000       0.000
   0.00000000  0.21052632  0.00000000       0.000
   0.00000000  0.23684211  0.00000000       0.000
   0.00000000  0.26315789  0.00000000       0.000
   0.00000000  0.28947368  0.00000000       0.000
   0.00000000  0.31578947  0.00000000       0.000
   0.00000000  0.34210526  0.00000000       0.000
   0.00000000  0.36842105  0.00000000       0.000
   0.00000000  0.39473684  0.00000000       0.000
   0.00000000  0.42105263  0.00000000       0.000
   0.00000000  0.44736842  0.00000000       0.000
   0.00000000  0.47368421  0.00000000       0.000
   0.00000000  0.50000000  0.00000000       0.000
   0.00000000  0.50000000  0.00000000       0.000
   0.00000000  0.50000000  0.06250000       0.000
   0.00000000  0.50000000  0.12500000       0.000
   0.00000000  0.50000000  0.18750000       0.000
   0.00000000  0.50000000  0.25000000       0.000
   0.00000000  0.50000000  0.31250000       0.000
[...]
     47       7.1060      0.00000
     48       7.2789      0.00000
     49       7.4203      0.00000
     50       7.5941      0.00000
     51       7.9735      0.00000
     52       8.5123      0.00000
     53       8.5399      0.00000
     54       8.5750      0.00000
     55       8.5971      0.00000
     56       8.6918      0.00000
     57       9.0068      0.00000
     58       9.0173      0.00000
     59       9.0876      0.00000
     60       9.8340      0.00000
     61       9.9239      0.00000
     62      10.5922      0.00000
     63      10.8461      0.00000
     64      10.9037      0.00000

 k-point   240 :      -0.5000    0.5000    0.5000
  band No.  band energies     occupation 
      1     -35.6163      1.00000
      2     -35.5768      1.00000
      3     -35.5245      1.00000
      4     -35.4774      1.00000
      5     -18.6267      1.00000
      6     -18.3977      1.00000
      7     -17.8614      1.00000
      8     -17.7771      1.00000
      9     -16.3943      1.00000
     10     -16.3323      1.00000
     11     -16.2307      1.00000
     12     -16.2250      1.00000
     13     -16.1807      1.00000
     14     -16.1765      1.00000
     15     -16.1189      1.00000
     16     -16.0765      1.00000
     17     -15.1295      1.00000
     18     -15.1133      1.00000
     19     -14.2543      1.00000
     20     -14.1482      1.00000
     21     -11.6948      1.00000
     22     -10.3819      1.00000
     23      -9.0612      1.00000
     24      -2.5178      1.00000
     25      -1.6764      1.00000
     26      -1.6313      1.00000
     27      -1.5858      1.00000
     28      -1.5546      1.00000
     29      -1.4942      1.00000
     30      -1.3504      1.00000
     31      -1.2934      1.00000
     32      -1.0502      1.00000
     33      -0.8230      1.00000
     34      -0.5773      1.00000
     35      -0.5593      1.00000
     36      -0.3805      1.00000
     37       0.4116      1.00000
     38       0.5940      1.00000
     39       0.8787      1.00000
     40       1.3779      1.00000
     41       1.3867      1.00000
     42       2.4198      1.00000
     43       2.5990      1.00000
     44       4.8631      0.00000
     45       6.1060      0.00000
     46       6.3928      0.00000
     47       7.0944      0.00000
     48       7.2706      0.00000
     49       7.4152      0.00000
     50       7.5868      0.00000
     51       7.9947      0.00000
     52       8.5459      0.00000
     53       8.5789      0.00000
     54       8.5825      0.00000
     55       8.6207      0.00000
     56       8.6306      0.00000
     57       9.0130      0.00000
     58       9.0218      0.00000
     59       9.0810      0.00000
     60       9.8082      0.00000
     61       9.9654      0.00000
     62      10.7631      0.00000
     63      10.8698      0.00000
     64      10.8875      0.00000


--------------------------------------------------------------------------------------------------------


 soft charge-density along one line, spin component           1
         0         1         2         3         4         5         6         7         8         9
 total charge-density along one line
 
 soft charge-density along one line, spin component           2
         0         1         2         3         4         5         6         7         8         9
 total charge-density along one line
 
 pseudopotential strength for first ion, spin component:           1
-10.930  -5.626  -0.000   0.024   0.000  -0.000  -0.039   0.000
 -5.626  -0.597   0.000   0.009  -0.000  -0.000   0.004  -0.000
 -0.000   0.000 -12.546   0.000  -0.000   4.053  -0.000   0.000
  0.024   0.009   0.000 -12.565   0.000  -0.000   4.081  -0.000
  0.000  -0.000  -0.000   0.000 -12.563   0.000  -0.000   4.077
 -0.000  -0.000   4.053  -0.000   0.000   8.666   0.000  -0.000
 -0.039   0.004  -0.000   4.081  -0.000   0.000   8.652   0.000
  0.000  -0.000   0.000  -0.000   4.077  -0.000   0.000   8.651
 -0.000  -0.000   0.000   0.000  -0.000   0.000   0.000  -0.000
  0.000   0.000   0.008   0.000   0.000  -0.023  -0.000   0.000
 -0.003  -0.003   0.000   0.009  -0.000   0.000  -0.019  -0.000
  0.000   0.000   0.000   0.000   0.008   0.000   0.000  -0.026
 -0.004  -0.004   0.000   0.000   0.000   0.000  -0.001   0.000
 -0.000  -0.000   0.000   0.000  -0.000   0.000   0.000  -0.000
  0.000   0.000   0.011   0.000   0.000  -0.030  -0.000   0.000
 -0.004  -0.004   0.000   0.012  -0.000   0.000  -0.026  -0.000
  0.000   0.000   0.000   0.000   0.012   0.000   0.000  -0.033
 -0.005  -0.006  -0.000   0.000   0.000   0.000  -0.002   0.000
 pseudopotential strength for first ion, spin component:           2
-10.930  -5.626   0.000   0.024   0.000  -0.000  -0.039   0.000
 -5.626  -0.597   0.000   0.009  -0.000   0.000   0.004   0.000
  0.000   0.000 -12.546   0.000  -0.000   4.053  -0.000   0.000
  0.024   0.009   0.000 -12.565   0.000  -0.000   4.081  -0.000
  0.000  -0.000  -0.000   0.000 -12.563   0.000  -0.000   4.077
 -0.000   0.000   4.053  -0.000   0.000   8.666   0.000  -0.000
 -0.039   0.004  -0.000   4.081  -0.000   0.000   8.652   0.000
  0.000   0.000   0.000  -0.000   4.077  -0.000   0.000   8.651
 -0.000  -0.000   0.000   0.000   0.000  -0.000  -0.000  -0.000
  0.000   0.000   0.008   0.000   0.000  -0.023  -0.000  -0.000
 -0.003  -0.003   0.000   0.009  -0.000   0.000  -0.019  -0.000
  0.000   0.000   0.000   0.000   0.008  -0.000  -0.000  -0.026
 -0.004  -0.004  -0.000   0.000   0.000   0.000  -0.001   0.000
 -0.000  -0.000   0.000   0.000   0.000   0.000  -0.000  -0.000
  0.000   0.000   0.011   0.000   0.000  -0.030  -0.000  -0.000
 -0.004  -0.004   0.000   0.012  -0.000   0.000  -0.026  -0.000
  0.000   0.000   0.000   0.000   0.012  -0.000  -0.000  -0.033
 -0.005  -0.006  -0.000   0.000   0.000   0.000  -0.002   0.000
 total augmentation occupancy for first ion, spin component:           1
  2.003  -0.018  -0.000  -0.004   0.000   0.000  -0.007  -0.000  -0.000   0.000  -0.001   0.000  -0.006   0.000  -0.000   0.004
 -0.018   0.657  -0.000  -0.083   0.000   0.000   0.067  -0.000  -0.000   0.000  -0.169   0.000  -0.146   0.000  -0.000   0.101
 -0.000  -0.000   2.007   0.000   0.000  -0.043   0.000  -0.000  -0.000  -0.076   0.000   0.000   0.000   0.000   0.006  -0.000
 -0.004  -0.083   0.000   2.007  -0.000  -0.000  -0.035   0.000   0.000  -0.000   0.013   0.000  -0.006  -0.000   0.000  -0.010
  0.000   0.000   0.000  -0.000   2.005  -0.000   0.000  -0.034  -0.000  -0.000   0.000  -0.104   0.000  -0.000   0.000   0.000
  0.000   0.000  -0.043  -0.000  -0.000   0.056   0.000  -0.000  -0.000   0.248  -0.000   0.000   0.000   0.000  -0.144   0.000
 -0.007   0.067   0.000  -0.035   0.000   0.000   0.043  -0.000  -0.000  -0.000  -0.064  -0.000   0.007   0.000  -0.000   0.034
 -0.000  -0.000  -0.000   0.000  -0.034  -0.000  -0.000   0.042   0.000   0.000  -0.000   0.283  -0.000  -0.000  -0.000   0.000
 -0.000  -0.000  -0.000   0.000  -0.000  -0.000  -0.000   0.000   1.423  -0.000  -0.000  -0.000  -0.000  -0.793   0.000   0.000
  0.000   0.000  -0.076  -0.000  -0.000   0.248  -0.000   0.000  -0.000   4.300   0.000   0.000   0.000   0.000  -2.441  -0.000
 -0.001  -0.169   0.000   0.013   0.000  -0.000  -0.064  -0.000  -0.000   0.000   1.632   0.000  -0.034   0.000  -0.000  -0.899
  0.000   0.000   0.000   0.000  -0.104   0.000  -0.000   0.283  -0.000   0.000   0.000   3.185  -0.000   0.000  -0.000  -0.000
 -0.006  -0.146   0.000  -0.006   0.000   0.000   0.007  -0.000  -0.000   0.000  -0.034  -0.000   4.843  -0.000  -0.000   0.014
  0.000   0.000   0.000  -0.000  -0.000   0.000   0.000  -0.000  -0.793   0.000   0.000   0.000  -0.000   0.442  -0.000  -0.000
 -0.000  -0.000   0.006   0.000   0.000  -0.144  -0.000  -0.000   0.000  -2.441  -0.000  -0.000  -0.000  -0.000   1.397   0.000
  0.004   0.101  -0.000  -0.010   0.000   0.000   0.034   0.000   0.000  -0.000  -0.899  -0.000   0.014  -0.000   0.000   0.496
 -0.000  -0.000  -0.000  -0.000   0.016  -0.000   0.000  -0.161   0.000  -0.000   0.000  -1.804   0.000  -0.000   0.000  -0.000
  0.008   0.084  -0.000   0.001  -0.000  -0.000  -0.003   0.000   0.000   0.000   0.014   0.000  -2.801  -0.000   0.000  -0.005
 total augmentation occupancy for first ion, spin component:           2
  0.000   0.000   0.000   0.000   0.000  -0.000  -0.000   0.000  -0.000  -0.000   0.000   0.000   0.000   0.000   0.000  -0.000
  0.000  -0.000   0.000   0.000   0.000  -0.000  -0.000   0.000  -0.000  -0.000   0.000  -0.000   0.000   0.000   0.000  -0.000
  0.000   0.000   0.000  -0.000   0.000  -0.000   0.000  -0.000   0.000  -0.000  -0.000   0.000  -0.000   0.000   0.000   0.000
  0.000   0.000  -0.000   0.000   0.000   0.000  -0.000   0.000  -0.000   0.000   0.000  -0.000  -0.000   0.000  -0.000   0.000
  0.000   0.000   0.000   0.000   0.000  -0.000   0.000  -0.000  -0.000   0.000   0.000  -0.000  -0.000   0.000   0.000  -0.000
 -0.000  -0.000  -0.000   0.000  -0.000   0.000  -0.000   0.000   0.000  -0.000  -0.000   0.000  -0.000  -0.000  -0.000   0.000
 -0.000  -0.000   0.000  -0.000   0.000  -0.000  -0.000  -0.000   0.000  -0.000  -0.000  -0.000   0.000  -0.000   0.000   0.000
  0.000   0.000  -0.000   0.000  -0.000   0.000  -0.000  -0.000   0.000   0.000   0.000   0.000   0.000  -0.000  -0.000  -0.000
 -0.000  -0.000   0.000  -0.000  -0.000   0.000   0.000   0.000  -0.000  -0.000  -0.000   0.000   0.000   0.000   0.000   0.000
 -0.000  -0.000  -0.000   0.000   0.000  -0.000  -0.000   0.000  -0.000   0.000  -0.000   0.000  -0.000   0.000  -0.000   0.000
  0.000   0.000  -0.000   0.000   0.000  -0.000  -0.000   0.000  -0.000  -0.000  -0.000   0.000   0.000   0.000   0.000   0.000
  0.000  -0.000   0.000  -0.000  -0.000   0.000  -0.000   0.000   0.000   0.000   0.000  -0.000   0.000  -0.000  -0.000  -0.000
  0.000   0.000  -0.000  -0.000  -0.000  -0.000   0.000   0.000   0.000  -0.000   0.000   0.000   0.000  -0.000   0.000   0.000
  0.000   0.000   0.000   0.000   0.000  -0.000  -0.000  -0.000   0.000   0.000   0.000  -0.000  -0.000  -0.000  -0.000  -0.000
  0.000   0.000   0.000  -0.000   0.000  -0.000   0.000  -0.000   0.000  -0.000   0.000  -0.000   0.000  -0.000   0.000  -0.000
 -0.000  -0.000   0.000   0.000  -0.000   0.000   0.000  -0.000   0.000   0.000   0.000  -0.000   0.000  -0.000  -0.000  -0.000
 -0.000   0.000  -0.000   0.000   0.000  -0.000  -0.000  -0.000  -0.000  -0.000  -0.000   0.000  -0.000   0.000   0.000   0.000
 -0.000  -0.000   0.000   0.000   0.000   0.000  -0.000  -0.000  -0.000   0.000  -0.000  -0.000  -0.000   0.000  -0.000  -0.000


------------------------ aborting loop because EDIFF is reached ----------------------------------------


 


 total charge     
 
# of ion     s       p       d       tot
----------------------------------------
  1        2.068   5.837   0.714   8.619
  2        2.063   5.841   0.710   8.614
  3        2.063   5.839   0.690   8.591
  4        2.063   5.839   0.690   8.591
  5        1.489   2.356   0.029   3.875
  6        1.489   2.356   0.029   3.875
  7        1.457   2.450   0.010   3.917
  8        1.565   3.486   0.000   5.051
  9        1.565   3.486   0.000   5.051
 10        1.567   3.501   0.000   5.068
 11        1.564   3.470   0.000   5.033
------------------------------------------------
tot       18.952  44.462   2.873  66.286
 


 magnetization (x)
 
# of ion     s       p       d       tot
----------------------------------------
  1       -0.000   0.000  -0.000  -0.000
  2       -0.000   0.000  -0.000  -0.000
  3       -0.000   0.000  -0.000  -0.000
  4       -0.000   0.000  -0.000  -0.000
  5        0.000   0.000  -0.000   0.000
  6        0.000   0.000  -0.000   0.000
  7        0.000   0.000  -0.000   0.000
  8        0.000   0.000   0.000   0.000
  9        0.000   0.000   0.000   0.000
 10        0.000   0.000   0.000   0.000
 11        0.000   0.000   0.000   0.000
------------------------------------------------
tot       -0.000   0.000  -0.000   0.000
 
    FORLOC:  cpu time    0.0138: real time    0.0166
    FORHF :  cpu time**********: real time**********
    FORNL :  cpu time    5.0966: real time    5.4447
    STRESS:  cpu time    9.9209: real time    9.9334
    FORCOR:  cpu time    0.5980: real time    0.6151
    OFIELD:  cpu time    0.0010: real time    0.0064

  FORCE on cell =-STRESS in cart. coord.  units (eV):
  Direction    XX          YY          ZZ          XY          YZ          ZX
  --------------------------------------------------------------------------------------
  Alpha Z   472.12796   472.12796   472.12796
  Ewald   -1133.86414 -1118.16564 -2535.33759     0.00000    -0.00000    -0.00000
  Hartree   881.26765   899.33810  -245.41339     0.00000     0.00000     0.00000
  E(xc)    -264.79413  -265.53136  -265.99109     0.00000     0.00000    -0.00000
  Local   -1071.26585 -1128.28208  1440.68003    -0.00001    -0.00000    -0.00000
  n-local   -69.14697   -62.28460   -59.93506     0.02629     0.27782     0.03016
  augment    24.39967    21.99652    21.06052     0.00000     0.00000    -0.00000
  Kinetic  1277.04228  1295.77507  1288.76800     0.03071     0.76939     0.03930
  Fock            NaN         NaN         NaN         NaN         NaN         NaN
  -------------------------------------------------------------------------------------
  Total           NaN         NaN         NaN         NaN         NaN         NaN
  in kB           NaN         NaN         NaN         NaN         NaN         NaN
  external pressure =         NaN kB  Pullay stress =        0.00 kB


 VOLUME and BASIS-vectors are now :
 -----------------------------------------------------------------------------
  energy-cutoff  :      520.00
  volume of cell :      228.71
      direct lattice vectors                 reciprocal lattice vectors
     0.000000000  2.034234808 -6.576915279     0.000000000  0.245792668 -0.076023482
     0.000000000  2.034234808  6.576915279     0.000000000  0.245792668  0.076023482
     8.547324533  0.000000000  0.000000000     0.116995675  0.000000000  0.000000000

  length of vectors
     6.884324646  6.884324646  8.547324533     0.257281179  0.257281179  0.116995675


 FORCES acting on ions:
    Electron-Ion                     Ewald-Force                    Non-Local-Force
 -----------------------------------------------------------------------------------------------
   -.597E-06 0.212E-05 0.327E+03   -.313E-13 0.130E-13 -.322E+03   0.000E+00 0.000E+00 -.173E+01
   -.151E-05 0.132E-05 0.260E+03   0.609E-13 -.125E-13 -.256E+03   0.000E+00 0.000E+00 -.159E+01
   -.202E+02 0.235E-05 -.290E+03   0.203E+02 0.721E-15 0.285E+03   -.100E+00 0.000E+00 0.155E+01
   0.202E+02 -.878E-06 -.290E+03   -.203E+02 0.166E-13 0.285E+03   0.100E+00 0.000E+00 0.155E+01
   0.189E+02 -.180E-05 0.979E+01   -.208E+02 0.967E-14 -.988E+01   0.217E+01 0.000E+00 0.894E-01
   -.189E+02 0.648E-06 0.979E+01   0.208E+02 -.199E-14 -.988E+01   -.217E+01 0.000E+00 0.894E-01
   0.414E-05 -.151E-05 -.464E+02   -.374E-13 -.159E-14 0.464E+02   0.000E+00 -.136E-19 -.188E-01
   -.136E+02 0.141E-04 0.314E+02   0.136E+02 -.462E-14 -.323E+02   0.538E-01 0.000E+00 0.863E+00
   0.136E+02 -.109E-04 0.314E+02   -.136E+02 -.112E-13 -.323E+02   -.538E-01 0.000E+00 0.863E+00
   0.311E-05 -.125E-05 0.143E+02   -.288E-14 -.132E-13 -.141E+02   0.000E+00 0.173E-17 -.207E+00
   0.105E-04 0.676E-05 -.569E+02   0.313E-13 -.868E-14 0.593E+02   0.000E+00 0.000E+00 -.220E+01
 -----------------------------------------------------------------------------------------------
   0.509E-05 0.109E-04 0.113E+01   -.160E-13 -.139E-13 0.639E-13   0.000E+00 0.172E-17 -.748E+00
 
 
 POSITION                                       TOTAL-FORCE (eV/Angst)
 -----------------------------------------------------------------------------------
      0.00000      2.03423     -6.55359              NaN           NaN           NaN
      4.27366      2.03423     -6.35503              NaN           NaN           NaN
      2.03109      2.03423      2.42130              NaN           NaN           NaN
      6.51623      2.03423      2.42130              NaN           NaN           NaN
      3.00933      2.03423     -1.89256              NaN           NaN           NaN
      5.53800      2.03423     -1.89256              NaN           NaN           NaN
      0.00000      2.03423     -2.44543              NaN           NaN           NaN
      2.08715      2.03423     -5.40935              NaN           NaN           NaN
      6.46017      2.03423     -5.40935              NaN           NaN           NaN
      0.00000      2.03423      1.17352              NaN           NaN           NaN
      4.27366      2.03423      1.51027              NaN           NaN           NaN
 -----------------------------------------------------------------------------------
    total drift:                                     NaN           NaN           NaN


--------------------------------------------------------------------------------------------------------



  FREE ENERGIE OF THE ION-ELECTRON SYSTEM (eV)
  ---------------------------------------------------
  free  energy   TOTEN  =       -94.14759207 eV

  energy  without entropy=      -94.14759207  energy(sigma->0) =      -94.14759207
 


--------------------------------------------------------------------------------------------------------


    POTLOK:  cpu time    1.7790: real time    2.0344


--------------------------------------------------------------------------------------------------------


     LOOP+:  cpu time**********: real time**********
    4ORBIT:  cpu time    0.0000: real time    0.0000
 


 total charge     
 
# of ion     s       p       d       tot
----------------------------------------
  1        2.068   5.837   0.714   8.619
  2        2.063   5.841   0.710   8.614
  3        2.063   5.839   0.690   8.591
  4        2.063   5.839   0.690   8.591
  5        1.489   2.356   0.029   3.875
  6        1.489   2.356   0.029   3.875
  7        1.457   2.450   0.010   3.917
  8        1.565   3.486   0.000   5.051
  9        1.565   3.486   0.000   5.051
 10        1.567   3.501   0.000   5.068
 11        1.564   3.470   0.000   5.033
------------------------------------------------
tot       18.952  44.462   2.873  66.286
 


 magnetization (x)
 
# of ion     s       p       d       tot
----------------------------------------
  1       -0.000   0.000  -0.000  -0.000
  2       -0.000   0.000  -0.000  -0.000
  3       -0.000   0.000  -0.000  -0.000
  4       -0.000   0.000  -0.000  -0.000
  5        0.000   0.000  -0.000   0.000
  6        0.000   0.000  -0.000   0.000
  7        0.000   0.000  -0.000   0.000
  8        0.000   0.000   0.000   0.000
  9        0.000   0.000   0.000   0.000
 10        0.000   0.000   0.000   0.000
 11        0.000   0.000   0.000   0.000
------------------------------------------------
tot       -0.000   0.000  -0.000   0.000
 

 total amount of memory used by VASP on root node   241882. kBytes
========================================================================

   base      :      30000. kBytes
   nonl-proj :      67298. kBytes
   fftplans  :       3926. kBytes
   grid      :       3855. kBytes
   one-center:         31. kBytes
   HF        :         64. kBytes
   nonlr-proj:      12847. kBytes
   wavefun   :     123861. kBytes
 
  
  
 General timing and accounting informations for this job:
 ========================================================
  
                  Total CPU time used (sec):   845684.250
                            User time (sec):   845400.800
                          System time (sec):      283.427
                         Elapsed time (sec):   845973.986
  
                   Maximum memory used (kb):      800976.
                   Average memory used (kb):           0.
  
                          Minor page faults:     73765798
                          Major page faults:          591
                 Voluntary context switches:        50082
