 vasp.5.4.1 24Jun15 (build Nov 23 2015 09:58:10) complex                        
  
 executed on             LinuxIFC date 2020.05.22  14:31:13
 running on   72 total cores
 distrk:  each k-point on   72 cores,    1 groups
 distr:  one band on NCORES_PER_BAND=  12 cores,    6 groups


--------------------------------------------------------------------------------------------------------


 INCAR:
 POTCAR:    PAW_PBE K_sv 06Sep2000                
 POTCAR:    PAW_PBE Zn 06Sep2000                  
 POTCAR:    PAW_PBE As 22Sep2009                  
 POTCAR:    PAW_PBE K_sv 06Sep2000                
   VRHFIN =K:  3s3p4s                                                           
   LEXCH  = PE                                                                  
   EATOM  =   775.0067 eV,   56.9614 Ry                                         
                                                                                
   TITEL  = PAW_PBE K_sv 06Sep2000                                              
   LULTRA =        F    use ultrasoft PP ?                                      
   IUNSCR =        1    unscreen: 0-lin 1-nonlin 2-no                           
   RPACOR =    2.200    partial core radius                                     
   POMASS =   39.098; ZVAL   =    9.000    mass and valenz                      
   RCORE  =    2.300    outmost cutoff radius                                   
   RWIGS  =    3.000; RWIGS  =    1.588    wigner-seitz radius (au A)           
   ENMAX  =  259.264; ENMIN  =  194.448 eV                                      
   RCLOC  =    2.005    cutoff for local pot                                    
   LCOR   =        T    correct aug charges                                     
   LPAW   =        T    paw PP                                                  
   EAUG   =  427.853                                                            
   DEXC   =    0.000                                                            
   RMAX   =    2.358    core radius for proj-oper                               
   RAUG   =    1.300    factor for augmentation sphere                          
   RDEP   =    2.372    radius for radial grids                                 
   RDEPT  =    2.002    core radius for aug-charge                              
                                                                                
   Atomic configuration                                                         
    7 entries                                                                   
     n  l   j            E        occ.                                          
     1  0  0.50     -3522.0595   2.0000                                         
     2  0  0.50      -353.3851   2.0000                                         
     2  1  1.50      -280.0935   6.0000                                         
     3  0  0.50       -35.3419   2.0000                                         
     4  0  0.50        -2.3190   1.0000                                         
     3  1  1.50       -18.8125   6.0000                                         
     3  2  1.50        -1.3606   0.0000                                         
   Description                                                                  
     l       E           TYP  RCUT    TYP  RCUT                                 
     0    -35.3418873     23  2.300                                             
     0     -2.3190215     23  2.300                                             
     1    -18.8124623     23  2.300                                             
     1    -20.4087390     23  2.300                                             
     2     -1.3605826     23  2.300                                             
  local pseudopotential read in
  partial core-charges read in
  partial kinetic energy density read in
  atomic valenz-charges read in
  non local Contribution for L=           0  read in
    real space projection operators read in
  non local Contribution for L=           0  read in
    real space projection operators read in
  non local Contribution for L=           1  read in
    real space projection operators read in
  non local Contribution for L=           1  read in
    real space projection operators read in
  non local Contribution for L=           2  read in
    real space projection operators read in
    PAW grid and wavefunctions read in
 
   number of l-projection  operators is LMAX  =           5
   number of lm-projection operators is LMMAX =          13
 
 POTCAR:    PAW_PBE Zn 06Sep2000                  
   VRHFIN =Zn: d10 p2                                                           
   LEXCH  = PE                                                                  
   EATOM  =  1748.8345 eV,  128.5357 Ry                                         
                                                                                
   TITEL  = PAW_PBE Zn 06Sep2000                                                
   LULTRA =        F    use ultrasoft PP ?                                      
   IUNSCR =        1    unscreen: 0-lin 1-nonlin 2-no                           
   RPACOR =    2.000    partial core radius                                     
   POMASS =   65.390; ZVAL   =   12.000    mass and valenz                      
   RCORE  =    2.300    outmost cutoff radius                                   
   RWIGS  =    2.400; RWIGS  =    1.270    wigner-seitz radius (au A)           
   ENMAX  =  276.723; ENMIN  =  207.542 eV                                      
   RCLOC  =    1.828    cutoff for local pot                                    
   LCOR   =        T    correct aug charges                                     
   LPAW   =        T    paw PP                                                  
   EAUG   =  575.892                                                            
   DEXC   =    0.000                                                            
   RMAX   =    2.347    core radius for proj-oper                               
   RAUG   =    1.300    factor for augmentation sphere                          
   RDEP   =    2.324    radius for radial grids                                 
   RDEPT  =    1.788    core radius for aug-charge                              
                                                                                
   Atomic configuration                                                         
    9 entries                                                                   
     n  l   j            E        occ.                                          
     1  0  0.50     -9524.6913   2.0000                                         
     2  0  0.50     -1158.1882   2.0000                                         
     2  1  1.50     -1003.8506   6.0000                                         
     3  0  0.50      -129.2194   2.0000                                         
     3  1  1.50       -83.3890   6.0000                                         
     3  2  2.50       -10.1410  10.0000                                         
     4  0  0.50        -5.9785   2.0000                                         
     4  1  0.50        -4.0817   0.0000                                         
     4  3  2.50        -1.3606   0.0000                                         
   Description                                                                  
     l       E           TYP  RCUT    TYP  RCUT                                 
     2    -10.1410010     23  2.300                                             
     2    -11.5015836     23  2.300                                             
     0     -5.9785163     23  2.300                                             
     0      1.1858015     23  2.300                                             
     1     -2.7211652     23  2.300                                             
     1     13.2444212     23  2.300                                             
  local pseudopotential read in
  partial core-charges read in
  partial kinetic energy density read in
  atomic valenz-charges read in
  non local Contribution for L=           2  read in
    real space projection operators read in
  non local Contribution for L=           2  read in
    real space projection operators read in
  non local Contribution for L=           0  read in
    real space projection operators read in
  non local Contribution for L=           0  read in
    real space projection operators read in
  non local Contribution for L=           1  read in
    real space projection operators read in
  non local Contribution for L=           1  read in
    real space projection operators read in
    PAW grid and wavefunctions read in
 
   number of l-projection  operators is LMAX  =           6
   number of lm-projection operators is LMMAX =          18
 
 POTCAR:    PAW_PBE As 22Sep2009                  
   VRHFIN =As: s2p3                                                             
   LEXCH  = PE                                                                  
   EATOM  =   170.1867 eV,   12.5084 Ry                                         
                                                                                
   TITEL  = PAW_PBE As 22Sep2009                                                
   LULTRA =        F    use ultrasoft PP ?                                      
   IUNSCR =        1    unscreen: 0-lin 1-nonlin 2-no                           
   RPACOR =    1.900    partial core radius                                     
   POMASS =   74.922; ZVAL   =    5.000    mass and valenz                      
   RCORE  =    2.100    outmost cutoff radius                                   
   RWIGS  =    2.300; RWIGS  =    1.217    wigner-seitz radius (au A)           
   ENMAX  =  208.702; ENMIN  =  156.526 eV                                      
   ICORE  =        3    local potential                                         
   LCOR   =        T    correct aug charges                                     
   LPAW   =        T    paw PP                                                  
   EAUG   =  462.758                                                            
   DEXC   =    0.000                                                            
   RMAX   =    2.144    core radius for proj-oper                               
   RAUG   =    1.300    factor for augmentation sphere                          
   RDEP   =    2.140    radius for radial grids                                 
   RDEPT  =    1.956    core radius for aug-charge                              
                                                                                
   Atomic configuration                                                         
   10 entries                                                                   
     n  l   j            E        occ.                                          
     1  0  0.50    -11718.0418   2.0000                                         
     2  0  0.50     -1486.5454   2.0000                                         
     2  1  1.50     -1303.3889   6.0000                                         
     3  0  0.50      -190.2849   2.0000                                         
     3  1  1.50      -133.6555   6.0000                                         
     3  2  2.50       -40.6443  10.0000                                         
     4  0  0.50       -14.4936   2.0000                                         
     4  1  0.50        -5.1947   3.0000                                         
     4  2  1.50        -5.4423   0.0000                                         
     4  3  2.50        -5.4423   0.0000                                         
   Description                                                                  
     l       E           TYP  RCUT    TYP  RCUT                                 
     0    -14.4935570     23  2.100                                             
     0    -11.9212055     23  2.100                                             
     1     -5.1947127     23  2.100                                             
     1     27.2116520     23  2.100                                             
     2     -5.4423304     23  2.100                                             
     3     -1.3605826      7  2.100                                             
  local pseudopotential read in
  partial core-charges read in
  partial kinetic energy density read in
  atomic valenz-charges read in
  non local Contribution for L=           0  read in
    real space projection operators read in
  non local Contribution for L=           0  read in
    real space projection operators read in
  non local Contribution for L=           1  read in
    real space projection operators read in
  non local Contribution for L=           1  read in
    real space projection operators read in
  non local Contribution for L=           2  read in
    real space projection operators read in
    PAW grid and wavefunctions read in
 
   number of l-projection  operators is LMAX  =           5
   number of lm-projection operators is LMMAX =          13
 
  PAW_PBE K_sv 06Sep2000                :
 energy of atom  1       EATOM= -775.0067
 kinetic energy error for atom=    0.0014 (will be added to EATOM!!)
  PAW_PBE Zn 06Sep2000                  :
 energy of atom  2       EATOM=-1748.8345
 kinetic energy error for atom=    0.0029 (will be added to EATOM!!)
  PAW_PBE As 22Sep2009                  :
 energy of atom  3       EATOM= -170.1867
 kinetic energy error for atom=    0.0005 (will be added to EATOM!!)
 
 
 POSCAR: K1 Zn1 As1                              
  positions in direct lattice
  velocities in cartesian coordinates
 exchange correlation table for  LEXCH =        8
   RHO(1)=    0.500       N(1)  =     2000
   RHO(2)=  100.500       N(2)  =     4000
 


--------------------------------------------------------------------------------------------------------


 ion  position               nearest neighbor table
   1  0.000  0.000  0.000-
   2  0.333  0.667  0.500-   3 2.44   3 2.44   3 2.44
   3  0.667  0.333  0.500-   2 2.44   2 2.44   2 2.44
 
  LATTYP: Found a hexagonal cell.
 ALAT       =     4.2290000000
 C/A-ratio  =     1.2099787184
  
  Lattice vectors:
  
 A1 = (   2.1145000000,  -3.6624210000,   0.0000000000)
 A2 = (   2.1145000000,   3.6624210000,   0.0000000000)
 A3 = (   0.0000000000,   0.0000000000,   5.1170000000)


Analysis of symmetry for initial positions (statically):
=====================================================================
 Subroutine PRICEL returns:
 Original cell was already a primitive cell.
 

 Routine SETGRP: Setting up the symmetry group for a 
 hexagonal supercell.


 Subroutine GETGRP returns: Found 12 space group operations
 (whereof 12 operations were pure point group operations)
 out of a pool of 24 trial point group operations.


The static configuration has the point symmetry D_3h.


Analysis of symmetry for dynamics (positions and initial velocities):
=====================================================================
 Subroutine PRICEL returns:
 Original cell was already a primitive cell.
 

 Routine SETGRP: Setting up the symmetry group for a 
 hexagonal supercell.


 Subroutine GETGRP returns: Found 12 space group operations
 (whereof 12 operations were pure point group operations)
 out of a pool of 24 trial point group operations.


The dynamic configuration has the point symmetry D_3h.


Analysis of magnetic symmetry:
=====================================================================
 Subroutine PRICEL returns:
 Original cell was already a primitive cell.
 

 Subroutine MAGSYM returns: Found 12 space group operations
 (whereof 12 operations were pure point group operations)
 out of a pool of 12 trial space group operations
 (whereof 12 operations were pure point group operations)
 and found also     1 'primitive' translations


The magnetic configuration has the point symmetry D_3h.
 
 
 KPOINTS: K-Mesh                                  

Automatic generation of k-mesh.
Space group operators:
 irot       det(A)        alpha          n_x          n_y          n_z        tau_x        tau_y        tau_z
    1     1.000000     0.000001     1.000000     0.000000     0.000000     0.000000     0.000000     0.000000
    2    -1.000000    60.000000     0.000000     0.000000    -1.000000     0.000000     0.000000     0.000000
    3     1.000000   120.000000     0.000000     0.000000    -1.000000     0.000000     0.000000     0.000000
    4    -1.000000   180.000000     0.000000     0.000000     1.000000     0.000000     0.000000     0.000000
    5     1.000000   120.000000     0.000000     0.000000     1.000000     0.000000     0.000000     0.000000
    6    -1.000000    60.000000     0.000000     0.000000     1.000000     0.000000     0.000000     0.000000
    7    -1.000000   180.000000     0.500000    -0.866025     0.000000     0.000000     0.000000     0.000000
    8     1.000000   180.000000     0.000000     1.000000     0.000000     0.000000     0.000000     0.000000
    9    -1.000000   180.000000    -0.500000    -0.866025     0.000000     0.000000     0.000000     0.000000
   10     1.000000   180.000000     0.866025     0.500000     0.000000     0.000000     0.000000     0.000000
   11    -1.000000   179.999999     1.000000     0.000000     0.000000     0.000000     0.000000     0.000000
   12     1.000000   180.000000     0.866025    -0.500000     0.000000     0.000000     0.000000     0.000000
 
 Subroutine IBZKPT returns following result:
 ===========================================
 
 Found    144 irreducible k-points:
 
 Following reciprocal coordinates:
            Coordinates               Weight
  0.000000  0.000000  0.000000      1.000000
  0.071429  0.000000  0.000000      6.000000
  0.142857  0.000000  0.000000      6.000000
  0.214286  0.000000  0.000000      6.000000
  0.285714  0.000000  0.000000      6.000000
  0.357143  0.000000  0.000000      6.000000
  0.428571  0.000000  0.000000      6.000000
  0.500000  0.000000  0.000000      3.000000
  0.071429  0.071429  0.000000      6.000000
  0.142857  0.071429  0.000000     12.000000
  0.214286  0.071429  0.000000     12.000000
  0.285714  0.071429  0.000000     12.000000
  0.357143  0.071429  0.000000     12.000000
  0.428571  0.071429  0.000000     12.000000
  0.142857  0.142857  0.000000      6.000000
  0.214286  0.142857  0.000000     12.000000
  0.285714  0.142857  0.000000     12.000000
  0.357143  0.142857  0.000000     12.000000
  0.428571  0.142857  0.000000      6.000000
  0.214286  0.214286  0.000000      6.000000
  0.285714  0.214286  0.000000     12.000000
  0.357143  0.214286  0.000000     12.000000
  0.285714  0.285714  0.000000      6.000000
  0.357143  0.285714  0.000000      6.000000
  0.000000  0.000000  0.100000      2.000000
  0.071429  0.000000  0.100000     12.000000
  0.142857  0.000000  0.100000     12.000000
  0.214286  0.000000  0.100000     12.000000
  0.285714  0.000000  0.100000     12.000000
  0.357143  0.000000  0.100000     12.000000
  0.428571  0.000000  0.100000     12.000000
  0.500000  0.000000  0.100000      6.000000
  0.071429  0.071429  0.100000     12.000000
  0.142857  0.071429  0.100000     24.000000
  0.214286  0.071429  0.100000     24.000000
  0.285714  0.071429  0.100000     24.000000
  0.357143  0.071429  0.100000     24.000000
  0.428571  0.071429  0.100000     24.000000
  0.142857  0.142857  0.100000     12.000000
  0.214286  0.142857  0.100000     24.000000
  0.285714  0.142857  0.100000     24.000000
  0.357143  0.142857  0.100000     24.000000
  0.428571  0.142857  0.100000     12.000000
  0.214286  0.214286  0.100000     12.000000
  0.285714  0.214286  0.100000     24.000000
  0.357143  0.214286  0.100000     24.000000
  0.285714  0.285714  0.100000     12.000000
  0.357143  0.285714  0.100000     12.000000
  0.000000  0.000000  0.200000      2.000000
  0.071429  0.000000  0.200000     12.000000
  0.142857  0.000000  0.200000     12.000000
  0.214286  0.000000  0.200000     12.000000
  0.285714  0.000000  0.200000     12.000000
  0.357143  0.000000  0.200000     12.000000
  0.428571  0.000000  0.200000     12.000000
  0.500000  0.000000  0.200000      6.000000
  0.071429  0.071429  0.200000     12.000000
  0.142857  0.071429  0.200000     24.000000
  0.214286  0.071429  0.200000     24.000000
  0.285714  0.071429  0.200000     24.000000
  0.357143  0.071429  0.200000     24.000000
  0.428571  0.071429  0.200000     24.000000
  0.142857  0.142857  0.200000     12.000000
  0.214286  0.142857  0.200000     24.000000
  0.285714  0.142857  0.200000     24.000000
  0.357143  0.142857  0.200000     24.000000
  0.428571  0.142857  0.200000     12.000000
  0.214286  0.214286  0.200000     12.000000
  0.285714  0.214286  0.200000     24.000000
  0.357143  0.214286  0.200000     24.000000
  0.285714  0.285714  0.200000     12.000000
  0.357143  0.285714  0.200000     12.000000
  0.000000  0.000000  0.300000      2.000000
  0.071429  0.000000  0.300000     12.000000
  0.142857  0.000000  0.300000     12.000000
  0.214286  0.000000  0.300000     12.000000
  0.285714  0.000000  0.300000     12.000000
  0.357143  0.000000  0.300000     12.000000
  0.428571  0.000000  0.300000     12.000000
  0.500000  0.000000  0.300000      6.000000
  0.071429  0.071429  0.300000     12.000000
  0.142857  0.071429  0.300000     24.000000
  0.214286  0.071429  0.300000     24.000000
  0.285714  0.071429  0.300000     24.000000
  0.357143  0.071429  0.300000     24.000000
  0.428571  0.071429  0.300000     24.000000
  0.142857  0.142857  0.300000     12.000000
  0.214286  0.142857  0.300000     24.000000
  0.285714  0.142857  0.300000     24.000000
  0.357143  0.142857  0.300000     24.000000
  0.428571  0.142857  0.300000     12.000000
  0.214286  0.214286  0.300000     12.000000
  0.285714  0.214286  0.300000     24.000000
  0.357143  0.214286  0.300000     24.000000
  0.285714  0.285714  0.300000     12.000000
  0.357143  0.285714  0.300000     12.000000
  0.000000  0.000000  0.400000      2.000000
  0.071429  0.000000  0.400000     12.000000
  0.142857  0.000000  0.400000     12.000000
  0.214286  0.000000  0.400000     12.000000
  0.285714  0.000000  0.400000     12.000000
  0.357143  0.000000  0.400000     12.000000
  0.428571  0.000000  0.400000     12.000000
  0.500000  0.000000  0.400000      6.000000
  0.071429  0.071429  0.400000     12.000000
  0.142857  0.071429  0.400000     24.000000
  0.214286  0.071429  0.400000     24.000000
  0.285714  0.071429  0.400000     24.000000
  0.357143  0.071429  0.400000     24.000000
  0.428571  0.071429  0.400000     24.000000
  0.142857  0.142857  0.400000     12.000000
  0.214286  0.142857  0.400000     24.000000
  0.285714  0.142857  0.400000     24.000000
  0.357143  0.142857  0.400000     24.000000
  0.428571  0.142857  0.400000     12.000000
  0.214286  0.214286  0.400000     12.000000
  0.285714  0.214286  0.400000     24.000000
  0.357143  0.214286  0.400000     24.000000
  0.285714  0.285714  0.400000     12.000000
  0.357143  0.285714  0.400000     12.000000
  0.000000  0.000000  0.500000      1.000000
  0.071429  0.000000  0.500000      6.000000
  0.142857  0.000000  0.500000      6.000000
  0.214286  0.000000  0.500000      6.000000
  0.285714  0.000000  0.500000      6.000000
  0.357143  0.000000  0.500000      6.000000
  0.428571  0.000000  0.500000      6.000000
  0.500000  0.000000  0.500000      3.000000
  0.071429  0.071429  0.500000      6.000000
  0.142857  0.071429  0.500000     12.000000
  0.214286  0.071429  0.500000     12.000000
  0.285714  0.071429  0.500000     12.000000
  0.357143  0.071429  0.500000     12.000000
  0.428571  0.071429  0.500000     12.000000
  0.142857  0.142857  0.500000      6.000000
  0.214286  0.142857  0.500000     12.000000
  0.285714  0.142857  0.500000     12.000000
  0.357143  0.142857  0.500000     12.000000
  0.428571  0.142857  0.500000      6.000000
  0.214286  0.214286  0.500000      6.000000
  0.285714  0.214286  0.500000     12.000000
  0.357143  0.214286  0.500000     12.000000
  0.285714  0.285714  0.500000      6.000000
  0.357143  0.285714  0.500000      6.000000
 
 Following cartesian coordinates:
            Coordinates               Weight
  0.000000  0.000000  0.000000      1.000000
  0.016890 -0.009752  0.000000      6.000000
  0.033780 -0.019503  0.000000      6.000000
  0.050671 -0.029255  0.000000      6.000000
  0.067561 -0.039006  0.000000      6.000000
  0.084451 -0.048758  0.000000      6.000000
  0.101341 -0.058509  0.000000      6.000000
  0.118231 -0.068261  0.000000      3.000000
  0.033780  0.000000  0.000000      6.000000
  0.050671 -0.009752  0.000000     12.000000
  0.067561 -0.019503  0.000000     12.000000
  0.084451 -0.029255  0.000000     12.000000
  0.101341 -0.039006  0.000000     12.000000
  0.118231 -0.048758  0.000000     12.000000
  0.067561  0.000000  0.000000      6.000000
  0.084451 -0.009752  0.000000     12.000000
  0.101341 -0.019503  0.000000     12.000000
  0.118231 -0.029255  0.000000     12.000000
  0.135121 -0.039006  0.000000      6.000000
  0.101341  0.000000  0.000000      6.000000
  0.118231 -0.009752  0.000000     12.000000
  0.135121 -0.019503  0.000000     12.000000
  0.135121  0.000000  0.000000      6.000000
  0.152012 -0.009752  0.000000      6.000000
  0.000000  0.000000  0.019543      2.000000
  0.016890 -0.009752  0.019543     12.000000
  0.033780 -0.019503  0.019543     12.000000
  0.050671 -0.029255  0.019543     12.000000
  0.067561 -0.039006  0.019543     12.000000
  0.084451 -0.048758  0.019543     12.000000
  0.101341 -0.058509  0.019543     12.000000
  0.118231 -0.068261  0.019543      6.000000
  0.033780  0.000000  0.019543     12.000000
  0.050671 -0.009752  0.019543     24.000000
  0.067561 -0.019503  0.019543     24.000000
  0.084451 -0.029255  0.019543     24.000000
  0.101341 -0.039006  0.019543     24.000000
  0.118231 -0.048758  0.019543     24.000000
  0.067561  0.000000  0.019543     12.000000
  0.084451 -0.009752  0.019543     24.000000
  0.101341 -0.019503  0.019543     24.000000
  0.118231 -0.029255  0.019543     24.000000
  0.135121 -0.039006  0.019543     12.000000
  0.101341  0.000000  0.019543     12.000000
  0.118231 -0.009752  0.019543     24.000000
  0.135121 -0.019503  0.019543     24.000000
  0.135121  0.000000  0.019543     12.000000
  0.152012 -0.009752  0.019543     12.000000
  0.000000  0.000000  0.039085      2.000000
  0.016890 -0.009752  0.039085     12.000000
  0.033780 -0.019503  0.039085     12.000000
  0.050671 -0.029255  0.039085     12.000000
  0.067561 -0.039006  0.039085     12.000000
  0.084451 -0.048758  0.039085     12.000000
  0.101341 -0.058509  0.039085     12.000000
  0.118231 -0.068261  0.039085      6.000000
  0.033780  0.000000  0.039085     12.000000
  0.050671 -0.009752  0.039085     24.000000
  0.067561 -0.019503  0.039085     24.000000
  0.084451 -0.029255  0.039085     24.000000
  0.101341 -0.039006  0.039085     24.000000
  0.118231 -0.048758  0.039085     24.000000
  0.067561  0.000000  0.039085     12.000000
  0.084451 -0.009752  0.039085     24.000000
  0.101341 -0.019503  0.039085     24.000000
  0.118231 -0.029255  0.039085     24.000000
  0.135121 -0.039006  0.039085     12.000000
  0.101341  0.000000  0.039085     12.000000
  0.118231 -0.009752  0.039085     24.000000
  0.135121 -0.019503  0.039085     24.000000
  0.135121  0.000000  0.039085     12.000000
  0.152012 -0.009752  0.039085     12.000000
  0.000000  0.000000  0.058628      2.000000
  0.016890 -0.009752  0.058628     12.000000
  0.033780 -0.019503  0.058628     12.000000
  0.050671 -0.029255  0.058628     12.000000
  0.067561 -0.039006  0.058628     12.000000
  0.084451 -0.048758  0.058628     12.000000
  0.101341 -0.058509  0.058628     12.000000
  0.118231 -0.068261  0.058628      6.000000
  0.033780  0.000000  0.058628     12.000000
  0.050671 -0.009752  0.058628     24.000000
  0.067561 -0.019503  0.058628     24.000000
  0.084451 -0.029255  0.058628     24.000000
  0.101341 -0.039006  0.058628     24.000000
  0.118231 -0.048758  0.058628     24.000000
  0.067561  0.000000  0.058628     12.000000
  0.084451 -0.009752  0.058628     24.000000
  0.101341 -0.019503  0.058628     24.000000
  0.118231 -0.029255  0.058628     24.000000
  0.135121 -0.039006  0.058628     12.000000
  0.101341  0.000000  0.058628     12.000000
  0.118231 -0.009752  0.058628     24.000000
  0.135121 -0.019503  0.058628     24.000000
  0.135121  0.000000  0.058628     12.000000
  0.152012 -0.009752  0.058628     12.000000
  0.000000  0.000000  0.078171      2.000000
  0.016890 -0.009752  0.078171     12.000000
  0.033780 -0.019503  0.078171     12.000000
  0.050671 -0.029255  0.078171     12.000000
  0.067561 -0.039006  0.078171     12.000000
  0.084451 -0.048758  0.078171     12.000000
  0.101341 -0.058509  0.078171     12.000000
  0.118231 -0.068261  0.078171      6.000000
  0.033780  0.000000  0.078171     12.000000
  0.050671 -0.009752  0.078171     24.000000
  0.067561 -0.019503  0.078171     24.000000
  0.084451 -0.029255  0.078171     24.000000
  0.101341 -0.039006  0.078171     24.000000
  0.118231 -0.048758  0.078171     24.000000
  0.067561  0.000000  0.078171     12.000000
  0.084451 -0.009752  0.078171     24.000000
  0.101341 -0.019503  0.078171     24.000000
  0.118231 -0.029255  0.078171     24.000000
  0.135121 -0.039006  0.078171     12.000000
  0.101341  0.000000  0.078171     12.000000
  0.118231 -0.009752  0.078171     24.000000
  0.135121 -0.019503  0.078171     24.000000
  0.135121  0.000000  0.078171     12.000000
  0.152012 -0.009752  0.078171     12.000000
  0.000000  0.000000  0.097714      1.000000
  0.016890 -0.009752  0.097714      6.000000
  0.033780 -0.019503  0.097714      6.000000
  0.050671 -0.029255  0.097714      6.000000
  0.067561 -0.039006  0.097714      6.000000
  0.084451 -0.048758  0.097714      6.000000
  0.101341 -0.058509  0.097714      6.000000
  0.118231 -0.068261  0.097714      3.000000
  0.033780  0.000000  0.097714      6.000000
  0.050671 -0.009752  0.097714     12.000000
  0.067561 -0.019503  0.097714     12.000000
  0.084451 -0.029255  0.097714     12.000000
  0.101341 -0.039006  0.097714     12.000000
  0.118231 -0.048758  0.097714     12.000000
  0.067561  0.000000  0.097714      6.000000
  0.084451 -0.009752  0.097714     12.000000
  0.101341 -0.019503  0.097714     12.000000
  0.118231 -0.029255  0.097714     12.000000
  0.135121 -0.039006  0.097714      6.000000
  0.101341  0.000000  0.097714      6.000000
  0.118231 -0.009752  0.097714     12.000000
  0.135121 -0.019503  0.097714     12.000000
  0.135121  0.000000  0.097714      6.000000
  0.152012 -0.009752  0.097714      6.000000
 


--------------------------------------------------------------------------------------------------------




 Dimension of arrays:
   k-points           NKPTS =    144   k-points in BZ     NKDIM =    144   number of bands    NBANDS=     24
   number of dos      NEDOS =    301   number of ions     NIONS =      3
   non local maximal  LDIM  =      6   non local SUM 2l+1 LMDIM =     18
   total plane-waves  NPLWV =  40960
   max r-space proj   IRMAX =      1   max aug-charges    IRDMAX= 192621
   dimension x,y,z NGX =    32 NGY =   32 NGZ =   40
   dimension x,y,z NGXF=    64 NGYF=   64 NGZF=   80
   support grid    NGXF=   128 NGYF=  128 NGZF=  160
   ions per type =               1   1   1
 NGX,Y,Z   is equivalent  to a cutoff of  12.58, 12.58, 13.00 a.u.
 NGXF,Y,Z  is equivalent  to a cutoff of  25.16, 25.16, 25.99 a.u.


 I would recommend the setting:
   dimension x,y,z NGX =    31 NGY =   31 NGZ =   38
 SYSTEM =  unknown system                          
 POSCAR =  K1 Zn1 As1                              

 Startparameter for this run:
   NWRITE =      2    write-flag & timer
   PREC   = accura    normal or accurate (medium, high low for compatibility)
   ISTART =      0    job   : 0-new  1-cont  2-samecut
   ICHARG =      2    charge: 1-file 2-atom 10-const
   ISPIN  =      2    spin polarized calculation?
   LNONCOLLINEAR =      F non collinear calculations
   LSORBIT =      F    spin-orbit coupling
   INIWAV =      1    electr: 0-lowe 1-rand  2-diag
   LASPH  =      F    aspherical Exc in radial PAW
   METAGGA=      F    non-selfconsistent MetaGGA calc.

 Electronic Relaxation 1
   ENCUT  =  520.0 eV  38.22 Ry    6.18 a.u.   7.86  7.86  9.51*2*pi/ulx,y,z
   ENINI  =  520.0     initial cutoff
   ENAUG  =  575.9 eV  augmentation charge cutoff
   NELM   =    140;   NELMIN=  6; NELMDL= -5     # of ELM steps 
   EDIFF  = 0.1E-03   stopping-criterion for ELM
   LREAL  =      F    real-space projection
   NLSPLINE    = F    spline interpolate recip. space projectors
   LCOMPAT=      F    compatible to vasp.4.4
   GGA_COMPAT  = T    GGA compatible to vasp.4.4-vasp.4.6
   LMAXPAW     = -100 max onsite density
   LMAXMIX     =    4 max onsite mixed and CHGCAR
   VOSKOWN=      0    Vosko Wilk Nusair interpolation
   ROPT   =    0.00000   0.00000   0.00000
 Ionic relaxation
   EDIFFG = -.1E-01   stopping-criterion for IOM
   NSW    =      0    number of steps for IOM
   NBLOCK =      1;   KBLOCK =      1    inner block; outer block 
   IBRION =     -1    ionic relax: 0-MD 1-quasi-New 2-CG
   NFREE  =      0    steps in history (QN), initial steepest desc. (CG)
   ISIF   =      2    stress and relaxation
   IWAVPR =     10    prediction:  0-non 1-charg 2-wave 3-comb
   ISYM   =      2    0-nonsym 1-usesym 2-fastsym
   LCORR  =      T    Harris-Foulkes like correction to forces

   POTIM  = 0.0500    time-step for ionic-motion
   TEIN   =    0.0    initial temperature
   TEBEG  =    0.0;   TEEND  =   0.0 temperature during run
   SMASS  =  -3.00    Nose mass-parameter (am)
   estimated Nose-frequenzy (Omega)   =  0.10E-29 period in steps =****** mass=  -0.409E-27a.u.
   SCALEE = 1.0000    scale energy and forces
   NPACO  =    256;   APACO  = 16.0  distance and # of slots for P.C.
   PSTRESS=    0.0 pullay stress

  Mass of Ions in am
   POMASS =  39.10 65.39 74.92
  Ionic Valenz
   ZVAL   =   9.00 12.00  5.00
  Atomic Wigner-Seitz radii
   RWIGS  =  -1.00 -1.00 -1.00
  virtual crystal weights 
   VCA    =   1.00  1.00  1.00
   NELECT =      26.0000    total number of electrons
   NUPDOWN=      -1.0000    fix difference up-down

 DOS related values:
   EMIN   =  10.00;   EMAX   =-10.00  energy-range for DOS
   EFERMI =   0.00
   ISMEAR =     0;   SIGMA  =   0.05  broadening in eV -4-tet -1-fermi 0-gaus

 Electronic relaxation 2 (details)
   IALGO  =     38    algorithm
   LDIAG  =      T    sub-space diagonalisation (order eigenvalues)
   LSUBROT=      F    optimize rotation matrix (better conditioning)
   TURBO    =      0    0=normal 1=particle mesh
   IRESTART =      0    0=no restart 2=restart with 2 vectors
   NREBOOT  =      0    no. of reboots
   NMIN     =      0    reboot dimension
   EREF     =   0.00    reference energy to select bands
   IMIX   =      4    mixing-type and parameters
     AMIX     =   0.10;   BMIX     =  1.20
     AMIX_MAG =   0.40;   BMIX_MAG =  1.20
     AMIN     =   0.10
     WC   =   100.;   INIMIX=   1;  MIXPRE=   1;  MAXMIX= -45

 Intra band minimization:
   WEIMIN = 0.0000     energy-eigenvalue tresh-hold
   EBREAK =  0.10E-05  absolut break condition
   DEPER  =   0.30     relativ break condition  

   TIME   =   0.40     timestep for ELM

  volume/ion in A,a.u.               =      26.42       178.28
  Fermi-wavevector in a.u.,A,eV,Ry     =   1.129082  2.133656 17.345064  1.274826
  Thomas-Fermi vector in A             =   2.265774
 
 Write flags
   LWAVE  =      F    write WAVECAR
   LCHARG =      T    write CHGCAR
   LVTOT  =      F    write LOCPOT, total local potential
   LVHAR  =      F    write LOCPOT, Hartree potential only
   LELF   =      F    write electronic localiz. function (ELF)
   LORBIT =     11    0 simple, 1 ext, 2 COOP (PROOUT)


 Dipole corrections
   LMONO  =      F    monopole corrections only (constant potential shift)
   LDIPOL =      F    correct potential (dipole corrections)
   IDIPOL =      0    1-x, 2-y, 3-z, 4-all directions 
   EPSILON=  1.0000000 bulk dielectric constant

 LDA+U is selected, type is set to LDAUTYPE =  2
   angular momentum for each species LDAUL =    -1    2   -1
   U (eV)           for each species LDAUU =   0.0  7.5  0.0
   J (eV)           for each species LDAUJ =   0.0  0.0  0.0
 Exchange correlation treatment:
   GGA     =    --    GGA type
   LEXCH   =     8    internal setting for exchange type
   VOSKOWN=      0    Vosko Wilk Nusair interpolation
   LHFCALC =     F    Hartree Fock is set to
   LHFONE  =     F    Hartree Fock one center treatment
   AEXX    =    0.0000 exact exchange contribution

 Linear response parameters
   LEPSILON=     F    determine dielectric tensor
   LRPA    =     F    only Hartree local field effects (RPA)
   LNABLA  =     F    use nabla operator in PAW spheres
   LVEL    =     F    velocity operator in full k-point grid
   LINTERFAST=   F  fast interpolation
   KINTER  =     0    interpolate to denser k-point grid
   CSHIFT  =0.1000    complex shift for real part using Kramers Kronig
   OMEGAMAX=  -1.0    maximum frequency
   DEG_THRESHOLD= 0.2000000E-02 threshold for treating states as degnerate
   RTIME   =    0.100 relaxation time in fs

 Orbital magnetization related:
   ORBITALMAG=     F  switch on orbital magnetization
   LCHIMAG   =     F  perturbation theory with respect to B field
   DQ        =  0.001000  dq finite difference perturbation B field



--------------------------------------------------------------------------------------------------------


 Static calculation
 charge density and potential will be updated during run
 spin polarized calculation
 Variant of blocked Davidson
 Davidson routine will perform the subspace rotation
 perform sub-space diagonalisation
    after iterative eigenvector-optimisation
 modified Broyden-mixing scheme, WC =      100.0
 initial mixing is a Kerker type mixing with AMIX =  0.1000 and BMIX =      1.2000
 Hartree-type preconditioning will be used
 using additional bands           11
 reciprocal scheme for non local part
 use partial core corrections
 calculate Harris-corrections to forces 
   (improved forces if not selfconsistent)
 use gradient corrections 
 use of overlap-Matrix (Vanderbilt PP)
 Gauss-broadening in eV      SIGMA  =   0.05


--------------------------------------------------------------------------------------------------------


  energy-cutoff  :      520.00
  volume of cell :       79.25
      direct lattice vectors                 reciprocal lattice vectors
     2.114500000 -3.662421000  0.000000000     0.236462521 -0.136521716  0.000000000
     2.114500000  3.662421000  0.000000000     0.236462521  0.136521716  0.000000000
     0.000000000  0.000000000  5.117000000     0.000000000  0.000000000  0.195427008

  length of vectors
     4.228999625  4.228999625  5.117000000     0.273043408  0.273043408  0.195427008


 
 k-points in units of 2pi/SCALE and weight: K-Mesh                                  
   0.00000000  0.00000000  0.00000000       0.001
   0.01689018 -0.00975155  0.00000000       0.003
   0.03378036 -0.01950310  0.00000000       0.003
   0.05067054 -0.02925465  0.00000000       0.003
   0.06756072 -0.03900620  0.00000000       0.003
   0.08445090 -0.04875776  0.00000000       0.003
   0.10134108 -0.05850931  0.00000000       0.003
   0.11823126 -0.06826086  0.00000000       0.002
   0.03378036  0.00000000  0.00000000       0.003
   0.05067054 -0.00975155  0.00000000       0.006
   0.06756072 -0.01950310  0.00000000       0.006
   0.08445090 -0.02925465  0.00000000       0.006
   0.10134108 -0.03900620  0.00000000       0.006
   0.11823126 -0.04875776  0.00000000       0.006
   0.06756072  0.00000000  0.00000000       0.003
   0.08445090 -0.00975155  0.00000000       0.006
   0.10134108 -0.01950310  0.00000000       0.006
   0.11823126 -0.02925465  0.00000000       0.006
   0.13512144 -0.03900620  0.00000000       0.003
   0.10134108  0.00000000  0.00000000       0.003
   0.11823126 -0.00975155  0.00000000       0.006
   0.13512144 -0.01950310  0.00000000       0.006
   0.13512144  0.00000000  0.00000000       0.003
   0.15201162 -0.00975155  0.00000000       0.003
   0.00000000  0.00000000  0.01954270       0.001
   0.01689018 -0.00975155  0.01954270       0.006
   0.03378036 -0.01950310  0.01954270       0.006
   0.05067054 -0.02925465  0.01954270       0.006
   0.06756072 -0.03900620  0.01954270       0.006
   0.08445090 -0.04875776  0.01954270       0.006
   0.10134108 -0.05850931  0.01954270       0.006
   0.11823126 -0.06826086  0.01954270       0.003
   0.03378036  0.00000000  0.01954270       0.006
   0.05067054 -0.00975155  0.01954270       0.012
   0.06756072 -0.01950310  0.01954270       0.012
   0.08445090 -0.02925465  0.01954270       0.012
   0.10134108 -0.03900620  0.01954270       0.012
   0.11823126 -0.04875776  0.01954270       0.012
   0.06756072  0.00000000  0.01954270       0.006
   0.08445090 -0.00975155  0.01954270       0.012
   0.10134108 -0.01950310  0.01954270       0.012
   0.11823126 -0.02925465  0.01954270       0.012
   0.13512144 -0.03900620  0.01954270       0.006
   0.10134108  0.00000000  0.01954270       0.006
   0.11823126 -0.00975155  0.01954270       0.012
   0.13512144 -0.01950310  0.01954270       0.012
   0.13512144  0.00000000  0.01954270       0.006
   0.15201162 -0.00975155  0.01954270       0.006
   0.00000000  0.00000000  0.03908540       0.001
   0.01689018 -0.00975155  0.03908540       0.006
   0.03378036 -0.01950310  0.03908540       0.006
   0.05067054 -0.02925465  0.03908540       0.006
   0.06756072 -0.03900620  0.03908540       0.006
   0.08445090 -0.04875776  0.03908540       0.006
   0.10134108 -0.05850931  0.03908540       0.006
   0.11823126 -0.06826086  0.03908540       0.003
   0.03378036  0.00000000  0.03908540       0.006
   0.05067054 -0.00975155  0.03908540       0.012
   0.06756072 -0.01950310  0.03908540       0.012
   0.08445090 -0.02925465  0.03908540       0.012
   0.10134108 -0.03900620  0.03908540       0.012
   0.11823126 -0.04875776  0.03908540       0.012
   0.06756072  0.00000000  0.03908540       0.006
   0.08445090 -0.00975155  0.03908540       0.012
   0.10134108 -0.01950310  0.03908540       0.012
   0.11823126 -0.02925465  0.03908540       0.012
   0.13512144 -0.03900620  0.03908540       0.006
   0.10134108  0.00000000  0.03908540       0.006
   0.11823126 -0.00975155  0.03908540       0.012
   0.13512144 -0.01950310  0.03908540       0.012
   0.13512144  0.00000000  0.03908540       0.006
   0.15201162 -0.00975155  0.03908540       0.006
   0.00000000  0.00000000  0.05862810       0.001
   0.01689018 -0.00975155  0.05862810       0.006
   0.03378036 -0.01950310  0.05862810       0.006
   0.05067054 -0.02925465  0.05862810       0.006
   0.06756072 -0.03900620  0.05862810       0.006
   0.08445090 -0.04875776  0.05862810       0.006
   0.10134108 -0.05850931  0.05862810       0.006
   0.11823126 -0.06826086  0.05862810       0.003
   0.03378036  0.00000000  0.05862810       0.006
   0.05067054 -0.00975155  0.05862810       0.012
   0.06756072 -0.01950310  0.05862810       0.012
   0.08445090 -0.02925465  0.05862810       0.012
   0.10134108 -0.03900620  0.05862810       0.012
   0.11823126 -0.04875776  0.05862810       0.012
   0.06756072  0.00000000  0.05862810       0.006
   0.08445090 -0.00975155  0.05862810       0.012
   0.10134108 -0.01950310  0.05862810       0.012
   0.11823126 -0.02925465  0.05862810       0.012
   0.13512144 -0.03900620  0.05862810       0.006
   0.10134108  0.00000000  0.05862810       0.006
   0.11823126 -0.00975155  0.05862810       0.012
   0.13512144 -0.01950310  0.05862810       0.012
   0.13512144  0.00000000  0.05862810       0.006
   0.15201162 -0.00975155  0.05862810       0.006
   0.00000000  0.00000000  0.07817080       0.001
   0.01689018 -0.00975155  0.07817080       0.006
   0.03378036 -0.01950310  0.07817080       0.006
   0.05067054 -0.02925465  0.07817080       0.006
   0.06756072 -0.03900620  0.07817080       0.006
   0.08445090 -0.04875776  0.07817080       0.006
   0.10134108 -0.05850931  0.07817080       0.006
   0.11823126 -0.06826086  0.07817080       0.003
   0.03378036  0.00000000  0.07817080       0.006
   0.05067054 -0.00975155  0.07817080       0.012
   0.06756072 -0.01950310  0.07817080       0.012
   0.08445090 -0.02925465  0.07817080       0.012
   0.10134108 -0.03900620  0.07817080       0.012
   0.11823126 -0.04875776  0.07817080       0.012
   0.06756072  0.00000000  0.07817080       0.006
   0.08445090 -0.00975155  0.07817080       0.012
   0.10134108 -0.01950310  0.07817080       0.012
   0.11823126 -0.02925465  0.07817080       0.012
   0.13512144 -0.03900620  0.07817080       0.006
   0.10134108  0.00000000  0.07817080       0.006
   0.11823126 -0.00975155  0.07817080       0.012
   0.13512144 -0.01950310  0.07817080       0.012
   0.13512144  0.00000000  0.07817080       0.006
   0.15201162 -0.00975155  0.07817080       0.006
   0.00000000  0.00000000  0.09771350       0.001
   0.01689018 -0.00975155  0.09771350       0.003
   0.03378036 -0.01950310  0.09771350       0.003
   0.05067054 -0.02925465  0.09771350       0.003
   0.06756072 -0.03900620  0.09771350       0.003
   0.08445090 -0.04875776  0.09771350       0.003
   0.10134108 -0.05850931  0.09771350       0.003
   0.11823126 -0.06826086  0.09771350       0.002
   0.03378036  0.00000000  0.09771350       0.003
   0.05067054 -0.00975155  0.09771350       0.006
   0.06756072 -0.01950310  0.09771350       0.006
   0.08445090 -0.02925465  0.09771350       0.006
   0.10134108 -0.03900620  0.09771350       0.006
   0.11823126 -0.04875776  0.09771350       0.006
   0.06756072  0.00000000  0.09771350       0.003
   0.08445090 -0.00975155  0.09771350       0.006
   0.10134108 -0.01950310  0.09771350       0.006
   0.11823126 -0.02925465  0.09771350       0.006
   0.13512144 -0.03900620  0.09771350       0.003
   0.10134108  0.00000000  0.09771350       0.003
   0.11823126 -0.00975155  0.09771350       0.006
   0.13512144 -0.01950310  0.09771350       0.006
   0.13512144  0.00000000  0.09771350       0.003
   0.15201162 -0.00975155  0.09771350       0.003
 
 k-points in reciprocal lattice and weights: K-Mesh                                  
   0.00000000  0.00000000  0.00000000       0.001
   0.07142857  0.00000000  0.00000000       0.003
   0.14285714  0.00000000  0.00000000       0.003
   0.21428571  0.00000000  0.00000000       0.003
   0.28571429  0.00000000  0.00000000       0.003
   0.35714286  0.00000000  0.00000000       0.003
   0.42857143  0.00000000  0.00000000       0.003
   0.50000000  0.00000000  0.00000000       0.002
   0.07142857  0.07142857  0.00000000       0.003
   0.14285714  0.07142857  0.00000000       0.006
   0.21428571  0.07142857  0.00000000       0.006
   0.28571429  0.07142857  0.00000000       0.006
   0.35714286  0.07142857  0.00000000       0.006
   0.42857143  0.07142857  0.00000000       0.006
   0.14285714  0.14285714  0.00000000       0.003
   0.21428571  0.14285714  0.00000000       0.006
   0.28571429  0.14285714  0.00000000       0.006
   0.35714286  0.14285714  0.00000000       0.006
   0.42857143  0.14285714  0.00000000       0.003
   0.21428571  0.21428571  0.00000000       0.003
   0.28571429  0.21428571  0.00000000       0.006
   0.35714286  0.21428571  0.00000000       0.006
   0.28571429  0.28571429  0.00000000       0.003
   0.35714286  0.28571429  0.00000000       0.003
   0.00000000  0.00000000  0.10000000       0.001
   0.07142857  0.00000000  0.10000000       0.006
   0.14285714  0.00000000  0.10000000       0.006
   0.21428571  0.00000000  0.10000000       0.006
   0.28571429  0.00000000  0.10000000       0.006
   0.35714286  0.00000000  0.10000000       0.006
   0.42857143  0.00000000  0.10000000       0.006
   0.50000000  0.00000000  0.10000000       0.003
   0.07142857  0.07142857  0.10000000       0.006
   0.14285714  0.07142857  0.10000000       0.012
   0.21428571  0.07142857  0.10000000       0.012
   0.28571429  0.07142857  0.10000000       0.012
   0.35714286  0.07142857  0.10000000       0.012
   0.42857143  0.07142857  0.10000000       0.012
   0.14285714  0.14285714  0.10000000       0.006
   0.21428571  0.14285714  0.10000000       0.012
   0.28571429  0.14285714  0.10000000       0.012
   0.35714286  0.14285714  0.10000000       0.012
   0.42857143  0.14285714  0.10000000       0.006
   0.21428571  0.21428571  0.10000000       0.006
   0.28571429  0.21428571  0.10000000       0.012
   0.35714286  0.21428571  0.10000000       0.012
   0.28571429  0.28571429  0.10000000       0.006
   0.35714286  0.28571429  0.10000000       0.006
   0.00000000  0.00000000  0.20000000       0.001
   0.07142857  0.00000000  0.20000000       0.006
   0.14285714  0.00000000  0.20000000       0.006
   0.21428571  0.00000000  0.20000000       0.006
   0.28571429  0.00000000  0.20000000       0.006
   0.35714286  0.00000000  0.20000000       0.006
   0.42857143  0.00000000  0.20000000       0.006
   0.50000000  0.00000000  0.20000000       0.003
   0.07142857  0.07142857  0.20000000       0.006
   0.14285714  0.07142857  0.20000000       0.012
   0.21428571  0.07142857  0.20000000       0.012
   0.28571429  0.07142857  0.20000000       0.012
   0.35714286  0.07142857  0.20000000       0.012
   0.42857143  0.07142857  0.20000000       0.012
   0.14285714  0.14285714  0.20000000       0.006
   0.21428571  0.14285714  0.20000000       0.012
   0.28571429  0.14285714  0.20000000       0.012
   0.35714286  0.14285714  0.20000000       0.012
   0.42857143  0.14285714  0.20000000       0.006
   0.21428571  0.21428571  0.20000000       0.006
   0.28571429  0.21428571  0.20000000       0.012
   0.35714286  0.21428571  0.20000000       0.012
   0.28571429  0.28571429  0.20000000       0.006
   0.35714286  0.28571429  0.20000000       0.006
   0.00000000  0.00000000  0.30000000       0.001
   0.07142857  0.00000000  0.30000000       0.006
   0.14285714  0.00000000  0.30000000       0.006
   0.21428571  0.00000000  0.30000000       0.006
   0.28571429  0.00000000  0.30000000       0.006
   0.35714286  0.00000000  0.30000000       0.006
   0.42857143  0.00000000  0.30000000       0.006
   0.50000000  0.00000000  0.30000000       0.003
   0.07142857  0.07142857  0.30000000       0.006
   0.14285714  0.07142857  0.30000000       0.012
   0.21428571  0.07142857  0.30000000       0.012
   0.28571429  0.07142857  0.30000000       0.012
   0.35714286  0.07142857  0.30000000       0.012
   0.42857143  0.07142857  0.30000000       0.012
   0.14285714  0.14285714  0.30000000       0.006
   0.21428571  0.14285714  0.30000000       0.012
   0.28571429  0.14285714  0.30000000       0.012
   0.35714286  0.14285714  0.30000000       0.012
   0.42857143  0.14285714  0.30000000       0.006
   0.21428571  0.21428571  0.30000000       0.006
   0.28571429  0.21428571  0.30000000       0.012
   0.35714286  0.21428571  0.30000000       0.012
   0.28571429  0.28571429  0.30000000       0.006
   0.35714286  0.28571429  0.30000000       0.006
   0.00000000  0.00000000  0.40000000       0.001
   0.07142857  0.00000000  0.40000000       0.006
   0.14285714  0.00000000  0.40000000       0.006
   0.21428571  0.00000000  0.40000000       0.006
   0.28571429  0.00000000  0.40000000       0.006
   0.35714286  0.00000000  0.40000000       0.006
   0.42857143  0.00000000  0.40000000       0.006
   0.50000000  0.00000000  0.40000000       0.003
   0.07142857  0.07142857  0.40000000       0.006
   0.14285714  0.07142857  0.40000000       0.012
   0.21428571  0.07142857  0.40000000       0.012
   0.28571429  0.07142857  0.40000000       0.012
   0.35714286  0.07142857  0.40000000       0.012
   0.42857143  0.07142857  0.40000000       0.012
   0.14285714  0.14285714  0.40000000       0.006
   0.21428571  0.14285714  0.40000000       0.012
   0.28571429  0.14285714  0.40000000       0.012
   0.35714286  0.14285714  0.40000000       0.012
   0.42857143  0.14285714  0.40000000       0.006
   0.21428571  0.21428571  0.40000000       0.006
   0.28571429  0.21428571  0.40000000       0.012
   0.35714286  0.21428571  0.40000000       0.012
   0.28571429  0.28571429  0.40000000       0.006
   0.35714286  0.28571429  0.40000000       0.006
   0.00000000  0.00000000  0.50000000       0.001
   0.07142857  0.00000000  0.50000000       0.003
   0.14285714  0.00000000  0.50000000       0.003
   0.21428571  0.00000000  0.50000000       0.003
   0.28571429  0.00000000  0.50000000       0.003
   0.35714286  0.00000000  0.50000000       0.003
   0.42857143  0.00000000  0.50000000       0.003
   0.50000000  0.00000000  0.50000000       0.002
   0.07142857  0.07142857  0.50000000       0.003
   0.14285714  0.07142857  0.50000000       0.006
   0.21428571  0.07142857  0.50000000       0.006
   0.28571429  0.07142857  0.50000000       0.006
   0.35714286  0.07142857  0.50000000       0.006
   0.42857143  0.07142857  0.50000000       0.006
   0.14285714  0.14285714  0.50000000       0.003
   0.21428571  0.14285714  0.50000000       0.006
   0.28571429  0.14285714  0.50000000       0.006
   0.35714286  0.14285714  0.50000000       0.006
   0.42857143  0.14285714  0.50000000       0.003
   0.21428571  0.21428571  0.50000000       0.003
   0.28571429  0.21428571  0.50000000       0.006
   0.35714286  0.21428571  0.50000000       0.006
   0.28571429  0.28571429  0.50000000       0.003
   0.35714286  0.28571429  0.50000000       0.003
 
 position of ions in fractional coordinates (direct lattice) 
   0.00000000  0.00000000  0.00000000
   0.33333300  0.66666700  0.50000000
   0.66666700  0.33333300  0.50000000
 
 position of ions in cartesian coordinates  (Angst):
   0.00000000  0.00000000  0.00000000
   2.11450000  1.22080944  2.55850000
   2.11450000 -1.22080944  2.55850000
 


--------------------------------------------------------------------------------------------------------


 k-point  1 :   0.0000 0.0000 0.0000  plane waves:    2149
 k-point  2 :   0.0714 0.0000 0.0000  plane waves:    2157
 k-point  3 :   0.1429 0.0000 0.0000  plane waves:    2139
 k-point  4 :   0.2143 0.0000 0.0000  plane waves:    2144
 k-point  5 :   0.2857 0.0000 0.0000  plane waves:    2124
 k-point  6 :   0.3571 0.0000 0.0000  plane waves:    2132
 k-point  7 :   0.4286 0.0000 0.0000  plane waves:    2132
 k-point  8 :   0.5000 0.0000 0.0000  plane waves:    2154
 k-point  9 :   0.0714 0.0714 0.0000  plane waves:    2152
 k-point 10 :   0.1429 0.0714 0.0000  plane waves:    2141
 k-point 11 :   0.2143 0.0714 0.0000  plane waves:    2130
 k-point 12 :   0.2857 0.0714 0.0000  plane waves:    2129
 k-point 13 :   0.3571 0.0714 0.0000  plane waves:    2140
 k-point 14 :   0.4286 0.0714 0.0000  plane waves:    2130
 k-point 15 :   0.1429 0.1429 0.0000  plane waves:    2126
 k-point 16 :   0.2143 0.1429 0.0000  plane waves:    2123
 k-point 17 :   0.2857 0.1429 0.0000  plane waves:    2131
 k-point 18 :   0.3571 0.1429 0.0000  plane waves:    2136
 k-point 19 :   0.4286 0.1429 0.0000  plane waves:    2136
 k-point 20 :   0.2143 0.2143 0.0000  plane waves:    2134
 k-point 21 :   0.2857 0.2143 0.0000  plane waves:    2136
 k-point 22 :   0.3571 0.2143 0.0000  plane waves:    2151
 k-point 23 :   0.2857 0.2857 0.0000  plane waves:    2152
 k-point 24 :   0.3571 0.2857 0.0000  plane waves:    2146
 k-point 25 :   0.0000 0.0000 0.1000  plane waves:    2131
 k-point 26 :   0.0714 0.0000 0.1000  plane waves:    2138
 k-point 27 :   0.1429 0.0000 0.1000  plane waves:    2142
 k-point 28 :   0.2143 0.0000 0.1000  plane waves:    2137
 k-point 29 :   0.2857 0.0000 0.1000  plane waves:    2133
 k-point 30 :   0.3571 0.0000 0.1000  plane waves:    2140
 k-point 31 :   0.4286 0.0000 0.1000  plane waves:    2141
 k-point 32 :   0.5000 0.0000 0.1000  plane waves:    2146
 k-point 33 :   0.0714 0.0714 0.1000  plane waves:    2138
 k-point 34 :   0.1429 0.0714 0.1000  plane waves:    2136
 k-point 35 :   0.2143 0.0714 0.1000  plane waves:    2133
 k-point 36 :   0.2857 0.0714 0.1000  plane waves:    2136
 k-point 37 :   0.3571 0.0714 0.1000  plane waves:    2140
 k-point 38 :   0.4286 0.0714 0.1000  plane waves:    2141
 k-point 39 :   0.1429 0.1429 0.1000  plane waves:    2137
 k-point 40 :   0.2143 0.1429 0.1000  plane waves:    2125
 k-point 41 :   0.2857 0.1429 0.1000  plane waves:    2128
 k-point 42 :   0.3571 0.1429 0.1000  plane waves:    2134
 k-point 43 :   0.4286 0.1429 0.1000  plane waves:    2133
 k-point 44 :   0.2143 0.2143 0.1000  plane waves:    2133
 k-point 45 :   0.2857 0.2143 0.1000  plane waves:    2138
 k-point 46 :   0.3571 0.2143 0.1000  plane waves:    2145
 k-point 47 :   0.2857 0.2857 0.1000  plane waves:    2145
 k-point 48 :   0.3571 0.2857 0.1000  plane waves:    2147
 k-point 49 :   0.0000 0.0000 0.2000  plane waves:    2119
 k-point 50 :   0.0714 0.0000 0.2000  plane waves:    2125
 k-point 51 :   0.1429 0.0000 0.2000  plane waves:    2124
 k-point 52 :   0.2143 0.0000 0.2000  plane waves:    2128
 k-point 53 :   0.2857 0.0000 0.2000  plane waves:    2137
 k-point 54 :   0.3571 0.0000 0.2000  plane waves:    2135
 k-point 55 :   0.4286 0.0000 0.2000  plane waves:    2137
 k-point 56 :   0.5000 0.0000 0.2000  plane waves:    2130
 k-point 57 :   0.0714 0.0714 0.2000  plane waves:    2125
 k-point 58 :   0.1429 0.0714 0.2000  plane waves:    2131
 k-point 59 :   0.2143 0.0714 0.2000  plane waves:    2130
 k-point 60 :   0.2857 0.0714 0.2000  plane waves:    2135
 k-point 61 :   0.3571 0.0714 0.2000  plane waves:    2141
 k-point 62 :   0.4286 0.0714 0.2000  plane waves:    2140
 k-point 63 :   0.1429 0.1429 0.2000  plane waves:    2135
 k-point 64 :   0.2143 0.1429 0.2000  plane waves:    2132
 k-point 65 :   0.2857 0.1429 0.2000  plane waves:    2131
 k-point 66 :   0.3571 0.1429 0.2000  plane waves:    2138
 k-point 67 :   0.4286 0.1429 0.2000  plane waves:    2143
 k-point 68 :   0.2143 0.2143 0.2000  plane waves:    2138
 k-point 69 :   0.2857 0.2143 0.2000  plane waves:    2139
 k-point 70 :   0.3571 0.2143 0.2000  plane waves:    2142
 k-point 71 :   0.2857 0.2857 0.2000  plane waves:    2143
 k-point 72 :   0.3571 0.2857 0.2000  plane waves:    2147
 k-point 73 :   0.0000 0.0000 0.3000  plane waves:    2125
 k-point 74 :   0.0714 0.0000 0.3000  plane waves:    2124
 k-point 75 :   0.1429 0.0000 0.3000  plane waves:    2121
 k-point 76 :   0.2143 0.0000 0.3000  plane waves:    2126
 k-point 77 :   0.2857 0.0000 0.3000  plane waves:    2131
 k-point 78 :   0.3571 0.0000 0.3000  plane waves:    2140
 k-point 79 :   0.4286 0.0000 0.3000  plane waves:    2137
 k-point 80 :   0.5000 0.0000 0.3000  plane waves:    2150
 k-point 81 :   0.0714 0.0714 0.3000  plane waves:    2115
 k-point 82 :   0.1429 0.0714 0.3000  plane waves:    2124
 k-point 83 :   0.2143 0.0714 0.3000  plane waves:    2132
 k-point 84 :   0.2857 0.0714 0.3000  plane waves:    2139
 k-point 85 :   0.3571 0.0714 0.3000  plane waves:    2133
 k-point 86 :   0.4286 0.0714 0.3000  plane waves:    2138
 k-point 87 :   0.1429 0.1429 0.3000  plane waves:    2129
 k-point 88 :   0.2143 0.1429 0.3000  plane waves:    2131
 k-point 89 :   0.2857 0.1429 0.3000  plane waves:    2137
 k-point 90 :   0.3571 0.1429 0.3000  plane waves:    2137
 k-point 91 :   0.4286 0.1429 0.3000  plane waves:    2144
 k-point 92 :   0.2143 0.2143 0.3000  plane waves:    2143
 k-point 93 :   0.2857 0.2143 0.3000  plane waves:    2141
 k-point 94 :   0.3571 0.2143 0.3000  plane waves:    2141
 k-point 95 :   0.2857 0.2857 0.3000  plane waves:    2139
 k-point 96 :   0.3571 0.2857 0.3000  plane waves:    2135
 k-point 97 :   0.0000 0.0000 0.4000  plane waves:    2119
 k-point 98 :   0.0714 0.0000 0.4000  plane waves:    2119
 k-point 99 :   0.1429 0.0000 0.4000  plane waves:    2116
 k-point ** :   0.2143 0.0000 0.4000  plane waves:    2127
 k-point ** :   0.2857 0.0000 0.4000  plane waves:    2127
 k-point ** :   0.3571 0.0000 0.4000  plane waves:    2133
 k-point ** :   0.4286 0.0000 0.4000  plane waves:    2134
 k-point ** :   0.5000 0.0000 0.4000  plane waves:    2136
 k-point ** :   0.0714 0.0714 0.4000  plane waves:    2123
 k-point ** :   0.1429 0.0714 0.4000  plane waves:    2117
 k-point ** :   0.2143 0.0714 0.4000  plane waves:    2127
 k-point ** :   0.2857 0.0714 0.4000  plane waves:    2133
 k-point ** :   0.3571 0.0714 0.4000  plane waves:    2129
 k-point ** :   0.4286 0.0714 0.4000  plane waves:    2136
 k-point ** :   0.1429 0.1429 0.4000  plane waves:    2124
 k-point ** :   0.2143 0.1429 0.4000  plane waves:    2134
 k-point ** :   0.2857 0.1429 0.4000  plane waves:    2131
 k-point ** :   0.3571 0.1429 0.4000  plane waves:    2133
 k-point ** :   0.4286 0.1429 0.4000  plane waves:    2145
 k-point ** :   0.2143 0.2143 0.4000  plane waves:    2134
 k-point ** :   0.2857 0.2143 0.4000  plane waves:    2134
 k-point ** :   0.3571 0.2143 0.4000  plane waves:    2139
 k-point ** :   0.2857 0.2857 0.4000  plane waves:    2140
 k-point ** :   0.3571 0.2857 0.4000  plane waves:    2138
 k-point ** :   0.0000 0.0000 0.5000  plane waves:    2108
 k-point ** :   0.0714 0.0000 0.5000  plane waves:    2118
 k-point ** :   0.1429 0.0000 0.5000  plane waves:    2114
 k-point ** :   0.2143 0.0000 0.5000  plane waves:    2122
 k-point ** :   0.2857 0.0000 0.5000  plane waves:    2132
 k-point ** :   0.3571 0.0000 0.5000  plane waves:    2126
 k-point ** :   0.4286 0.0000 0.5000  plane waves:    2128
 k-point ** :   0.5000 0.0000 0.5000  plane waves:    2128
 k-point ** :   0.0714 0.0714 0.5000  plane waves:    2112
 k-point ** :   0.1429 0.0714 0.5000  plane waves:    2114
 k-point ** :   0.2143 0.0714 0.5000  plane waves:    2128
 k-point ** :   0.2857 0.0714 0.5000  plane waves:    2132
 k-point ** :   0.3571 0.0714 0.5000  plane waves:    2126
 k-point ** :   0.4286 0.0714 0.5000  plane waves:    2126
 k-point ** :   0.1429 0.1429 0.5000  plane waves:    2126
 k-point ** :   0.2143 0.1429 0.5000  plane waves:    2130
 k-point ** :   0.2857 0.1429 0.5000  plane waves:    2130
 k-point ** :   0.3571 0.1429 0.5000  plane waves:    2130
 k-point ** :   0.4286 0.1429 0.5000  plane waves:    2134
 k-point ** :   0.2143 0.2143 0.5000  plane waves:    2138
 k-point ** :   0.2857 0.2143 0.5000  plane waves:    2134
 k-point ** :   0.3571 0.2143 0.5000  plane waves:    2132
 k-point ** :   0.2857 0.2857 0.5000  plane waves:    2130
 k-point ** :   0.3571 0.2857 0.5000  plane waves:    2140

 maximum and minimum number of plane-waves per node :       189      165

 maximum number of plane-waves:      2157
 maximum index in each direction: 
   IXMAX=    7   IYMAX=    7   IZMAX=    9
   IXMIN=   -8   IYMIN=   -8   IZMIN=  -10

 NGX is ok and might be reduce to  32
 NGY is ok and might be reduce to  32
 NGZ is ok and might be reduce to  40

 parallel 3D FFT for wavefunctions:
    minimum data exchange during FFTs selected (reduces bandwidth)
 parallel 3D FFT for charge:
    minimum data exchange during FFTs selected (reduces bandwidth)


 total amount of memory used by VASP on root node    47009. kBytes
========================================================================

   base      :      30000. kBytes
   nonl-proj :      11579. kBytes
   fftplans  :        869. kBytes
   grid      :        770. kBytes
   one-center:         31. kBytes
   wavefun   :       3760. kBytes
 
     INWAV:  cpu time    0.0010: real time    0.0003
 Broyden mixing: mesh for mixing (old mesh)
   NGX = 15   NGY = 15   NGZ = 19
  (NGX  = 64   NGY  = 64   NGZ  = 80)
  gives a total of   4275 points

 initial charge density was supplied:
 charge density of overlapping atoms calculated
 number of electron      26.0000000 magnetization       3.0000000
 keeping initial charge density in first step


--------------------------------------------------------------------------------------------------------


 Maximum index for augmentation-charges         3627 (set IRDMAX)


--------------------------------------------------------------------------------------------------------


 First call to EWALD:  gamma=   0.413
 Maximum number of real-space cells 3x 3x 2
 Maximum number of reciprocal cells 3x 3x 3

 FEWALD executed in parallel
    FEWALD:  cpu time    0.0050: real time    0.0075


----------------------------------------- Iteration    1(   1)  ---------------------------------------


    POTLOK:  cpu time    0.0420: real time    0.0508
    SETDIJ:  cpu time    0.0420: real time    0.0443
     EDDAV:  cpu time    4.8343: real time    5.0292
       DOS:  cpu time    0.0070: real time    0.0165
    --------------------------------------------
      LOOP:  cpu time    4.9342: real time    5.1583

 eigenvalue-minimisations  : 13824
 total energy-change (2. order) : 0.1419522E+03  (-0.1196694E+04)
 number of electron      26.0000000 magnetization       3.0000000
 augmentation part       26.0000000 magnetization       3.0000000

 Free energy of the ion-electron system (eV)
  ---------------------------------------------------
  alpha Z        PSCENC =       104.06673860
  Ewald energy   TEWEN  =     -1604.53651565
  -Hartree energ DENC   =      -936.99232671
  -exchange      EXHF   =         0.00000000
  -V(xc)+E(xc)   XCENC  =        80.99193848
  PAW double counting   =      2196.05662077    -2311.19034559
  entropy T*S    EENTRO =        -0.00110255
  eigenvalues    EBANDS =       -80.46586991
  atomic energy  EATOM  =      2694.02308540
  Solvation  Ediel_sol  =         0.00000000
  ---------------------------------------------------
  free energy    TOTEN  =       141.95222283 eV

  energy without entropy =      141.95332538  energy(sigma->0) =      141.95277410


--------------------------------------------------------------------------------------------------------




----------------------------------------- Iteration    1(   2)  ---------------------------------------


     EDDAV:  cpu time    5.3012: real time    5.3178
       DOS:  cpu time    0.0040: real time    0.0037
    --------------------------------------------
      LOOP:  cpu time    5.3072: real time    5.3363

 eigenvalue-minimisations  : 16212
 total energy-change (2. order) :-0.1410024E+03  (-0.1335806E+03)
 number of electron      26.0000000 magnetization       3.0000000
 augmentation part       26.0000000 magnetization       3.0000000

 Free energy of the ion-electron system (eV)
  ---------------------------------------------------
  alpha Z        PSCENC =       104.06673860
  Ewald energy   TEWEN  =     -1604.53651565
  -Hartree energ DENC   =      -936.99232671
  -exchange      EXHF   =         0.00000000
  -V(xc)+E(xc)   XCENC  =        80.99193848
  PAW double counting   =      2196.05662077    -2311.19034559
  entropy T*S    EENTRO =        -0.00003319
  eigenvalues    EBANDS =      -221.46928988
  atomic energy  EATOM  =      2694.02308540
  Solvation  Ediel_sol  =         0.00000000
  ---------------------------------------------------
  free energy    TOTEN  =         0.94987222 eV

  energy without entropy =        0.94990541  energy(sigma->0) =        0.94988882


--------------------------------------------------------------------------------------------------------




----------------------------------------- Iteration    1(   3)  ---------------------------------------


     EDDAV:  cpu time    6.0181: real time    6.0269
       DOS:  cpu time    0.0020: real time    0.0022
    --------------------------------------------
      LOOP:  cpu time    6.0221: real time    6.0435

 eigenvalue-minimisations  : 18996
 total energy-change (2. order) :-0.8023685E+01  (-0.8000682E+01)
 number of electron      26.0000000 magnetization       3.0000000
 augmentation part       26.0000000 magnetization       3.0000000

 Free energy of the ion-electron system (eV)
  ---------------------------------------------------
  alpha Z        PSCENC =       104.06673860
  Ewald energy   TEWEN  =     -1604.53651565
  -Hartree energ DENC   =      -936.99232671
  -exchange      EXHF   =         0.00000000
  -V(xc)+E(xc)   XCENC  =        80.99193848
  PAW double counting   =      2196.05662077    -2311.19034559
  entropy T*S    EENTRO =        -0.00000000
  eigenvalues    EBANDS =      -229.49300807
  atomic energy  EATOM  =      2694.02308540
  Solvation  Ediel_sol  =         0.00000000
  ---------------------------------------------------
  free energy    TOTEN  =        -7.07381277 eV

  energy without entropy =       -7.07381277  energy(sigma->0) =       -7.07381277


--------------------------------------------------------------------------------------------------------




----------------------------------------- Iteration    1(   4)  ---------------------------------------


     EDDAV:  cpu time    5.9101: real time    5.9203
       DOS:  cpu time    0.0030: real time    0.0024
    --------------------------------------------
      LOOP:  cpu time    5.9141: real time    5.9346

 eigenvalue-minimisations  : 18816
 total energy-change (2. order) :-0.1425993E+00  (-0.1425816E+00)
 number of electron      26.0000000 magnetization       3.0000000
 augmentation part       26.0000000 magnetization       3.0000000

 Free energy of the ion-electron system (eV)
  ---------------------------------------------------
  alpha Z        PSCENC =       104.06673860
  Ewald energy   TEWEN  =     -1604.53651565
  -Hartree energ DENC   =      -936.99232671
  -exchange      EXHF   =         0.00000000
  -V(xc)+E(xc)   XCENC  =        80.99193848
  PAW double counting   =      2196.05662077    -2311.19034559
  entropy T*S    EENTRO =        -0.00000000
  eigenvalues    EBANDS =      -229.63560737
  atomic energy  EATOM  =      2694.02308540
  Solvation  Ediel_sol  =         0.00000000
  ---------------------------------------------------
  free energy    TOTEN  =        -7.21641208 eV

  energy without entropy =       -7.21641208  energy(sigma->0) =       -7.21641208


--------------------------------------------------------------------------------------------------------




----------------------------------------- Iteration    1(   5)  ---------------------------------------


     EDDAV:  cpu time    6.1631: real time    6.1760
       DOS:  cpu time    0.0020: real time    0.0023
    CHARGE:  cpu time    0.1190: real time    0.1298
    MIXING:  cpu time    0.0040: real time    0.0127
    --------------------------------------------
      LOOP:  cpu time    6.2900: real time    6.3331

 eigenvalue-minimisations  : 19524
 total energy-change (2. order) :-0.6075023E-03  (-0.6074983E-03)
 number of electron      26.0000000 magnetization       2.3862101
 augmentation part        8.6126400 magnetization       2.4207487

 Broyden mixing:
  rms(total) = 0.10181E+01    rms(broyden)= 0.10181E+01
  rms(prec ) = 0.12496E+01
  weight for this iteration     100.00

 Free energy of the ion-electron system (eV)
  ---------------------------------------------------
  alpha Z        PSCENC =       104.06673860
  Ewald energy   TEWEN  =     -1604.53651565
  -Hartree energ DENC   =      -936.99232671
  -exchange      EXHF   =         0.00000000
  -V(xc)+E(xc)   XCENC  =        80.99193848
  PAW double counting   =      2196.05662077    -2311.19034559
  entropy T*S    EENTRO =        -0.00000000
  eigenvalues    EBANDS =      -229.63621487
  atomic energy  EATOM  =      2694.02308540
  Solvation  Ediel_sol  =         0.00000000
  ---------------------------------------------------
  free energy    TOTEN  =        -7.21701958 eV

  energy without entropy =       -7.21701958  energy(sigma->0) =       -7.21701958


--------------------------------------------------------------------------------------------------------




----------------------------------------- Iteration    1(   6)  ---------------------------------------


    POTLOK:  cpu time    0.0420: real time    0.0421
    SETDIJ:  cpu time    0.0400: real time    0.0401
     EDDAV:  cpu time    5.8881: real time    5.8998
       DOS:  cpu time    0.0020: real time    0.0023
    CHARGE:  cpu time    0.1140: real time    0.1139
    MIXING:  cpu time    0.0040: real time    0.0293
    --------------------------------------------
      LOOP:  cpu time    6.0941: real time    6.1375

 eigenvalue-minimisations  : 18672
 total energy-change (2. order) :-0.1783784E+00  (-0.1034363E-01)
 number of electron      26.0000000 magnetization       0.5960797
 augmentation part        8.6392655 magnetization       0.6156573

 Broyden mixing:
  rms(total) = 0.78764E+00    rms(broyden)= 0.78764E+00
  rms(prec ) = 0.97308E+00
  weight for this iteration     100.00

 eigenvalues of (default mixing * dielectric matrix)
  average eigenvalue GAMMA=   3.1822
  3.1822

 Free energy of the ion-electron system (eV)
  ---------------------------------------------------
  alpha Z        PSCENC =       104.06673860
  Ewald energy   TEWEN  =     -1604.53651565
  -Hartree energ DENC   =      -935.17037606
  -exchange      EXHF   =         0.00000000
  -V(xc)+E(xc)   XCENC  =        80.85734117
  PAW double counting   =      2212.55582338    -2327.35128106
  entropy T*S    EENTRO =        -0.00000000
  eigenvalues    EBANDS =      -231.84021379
  atomic energy  EATOM  =      2694.02308540
  Solvation  Ediel_sol  =         0.00000000
  ---------------------------------------------------
  free energy    TOTEN  =        -7.39539801 eV

  energy without entropy =       -7.39539801  energy(sigma->0) =       -7.39539801


--------------------------------------------------------------------------------------------------------




----------------------------------------- Iteration    1(   7)  ---------------------------------------


    POTLOK:  cpu time    0.0410: real time    0.0411
    SETDIJ:  cpu time    0.0400: real time    0.0404
     EDDAV:  cpu time    6.0181: real time    6.0294
       DOS:  cpu time    0.0030: real time    0.0025
    CHARGE:  cpu time    0.1130: real time    0.1137
    MIXING:  cpu time    0.0010: real time    0.0061
    --------------------------------------------
      LOOP:  cpu time    6.2201: real time    6.2443

 eigenvalue-minimisations  : 19260
 total energy-change (2. order) :-0.8898831E-01  (-0.7854110E-01)
 number of electron      26.0000000 magnetization      -0.0364417
 augmentation part        8.7037025 magnetization      -0.0458750

 Broyden mixing:
  rms(total) = 0.40650E+00    rms(broyden)= 0.40650E+00
  rms(prec ) = 0.44016E+00
  weight for this iteration     100.00

 eigenvalues of (default mixing * dielectric matrix)
  average eigenvalue GAMMA=   3.6967
  3.0474  4.3459

 Free energy of the ion-electron system (eV)
  ---------------------------------------------------
  alpha Z        PSCENC =       104.06673860
  Ewald energy   TEWEN  =     -1604.53651565
  -Hartree energ DENC   =      -930.78143615
  -exchange      EXHF   =         0.00000000
  -V(xc)+E(xc)   XCENC  =        80.73231782
  PAW double counting   =      2272.16057776    -2385.93420421
  entropy T*S    EENTRO =        -0.00000000
  eigenvalues    EBANDS =      -237.21494988
  atomic energy  EATOM  =      2694.02308540
  Solvation  Ediel_sol  =         0.00000000
  ---------------------------------------------------
  free energy    TOTEN  =        -7.48438632 eV

  energy without entropy =       -7.48438632  energy(sigma->0) =       -7.48438632


--------------------------------------------------------------------------------------------------------




----------------------------------------- Iteration    1(   8)  ---------------------------------------


    POTLOK:  cpu time    0.0440: real time    0.0439
    SETDIJ:  cpu time    0.0400: real time    0.0402
     EDDAV:  cpu time    5.8151: real time    5.8251
       DOS:  cpu time    0.0020: real time    0.0019
    CHARGE:  cpu time    0.1130: real time    0.1137
    MIXING:  cpu time    0.0010: real time    0.0062
    --------------------------------------------
      LOOP:  cpu time    6.0181: real time    6.0441

 eigenvalue-minimisations  : 18276
 total energy-change (2. order) :-0.6286188E-01  (-0.1795527E-01)
 number of electron      26.0000000 magnetization      -0.2054552
 augmentation part        8.7040322 magnetization      -0.2021699

 Broyden mixing:
  rms(total) = 0.22605E+00    rms(broyden)= 0.22605E+00
  rms(prec ) = 0.24284E+00
  weight for this iteration     100.00

 eigenvalues of (default mixing * dielectric matrix)
  average eigenvalue GAMMA=   3.6860
  5.1166  2.9707  2.9707

 Free energy of the ion-electron system (eV)
  ---------------------------------------------------
  alpha Z        PSCENC =       104.06673860
  Ewald energy   TEWEN  =     -1604.53651565
  -Hartree energ DENC   =      -931.25141628
  -exchange      EXHF   =         0.00000000
  -V(xc)+E(xc)   XCENC  =        80.82130708
  PAW double counting   =      2330.05042784    -2444.65304553
  entropy T*S    EENTRO =        -0.00000000
  eigenvalues    EBANDS =      -236.06782966
  atomic energy  EATOM  =      2694.02308540
  Solvation  Ediel_sol  =         0.00000000
  ---------------------------------------------------
  free energy    TOTEN  =        -7.54724820 eV

  energy without entropy =       -7.54724820  energy(sigma->0) =       -7.54724820


--------------------------------------------------------------------------------------------------------




----------------------------------------- Iteration    1(   9)  ---------------------------------------


    POTLOK:  cpu time    0.0420: real time    0.0426
    SETDIJ:  cpu time    0.0400: real time    0.0402
     EDDAV:  cpu time    5.4612: real time    5.4701
       DOS:  cpu time    0.0020: real time    0.0024
    CHARGE:  cpu time    0.1130: real time    0.1134
    MIXING:  cpu time    0.0000: real time    0.0007
    --------------------------------------------
      LOOP:  cpu time    5.6621: real time    5.6828

 eigenvalue-minimisations  : 16788
 total energy-change (2. order) :-0.6847665E-02  (-0.1867742E-02)
 number of electron      26.0000000 magnetization      -0.1990132
 augmentation part        8.7021630 magnetization      -0.1963796

 Broyden mixing:
  rms(total) = 0.12297E+00    rms(broyden)= 0.12297E+00
  rms(prec ) = 0.13972E+00
  weight for this iteration     100.00

 eigenvalues of (default mixing * dielectric matrix)
  average eigenvalue GAMMA=   3.5991
  7.8495  3.0136  2.7737  0.7598

 Free energy of the ion-electron system (eV)
  ---------------------------------------------------
  alpha Z        PSCENC =       104.06673860
  Ewald energy   TEWEN  =     -1604.53651565
  -Hartree energ DENC   =      -931.19365166
  -exchange      EXHF   =         0.00000000
  -V(xc)+E(xc)   XCENC  =        80.86666680
  PAW double counting   =      2359.59559139    -2474.44572769
  entropy T*S    EENTRO =        -0.00000000
  eigenvalues    EBANDS =      -235.93028305
  atomic energy  EATOM  =      2694.02308540
  Solvation  Ediel_sol  =         0.00000000
  ---------------------------------------------------
  free energy    TOTEN  =        -7.55409587 eV

  energy without entropy =       -7.55409587  energy(sigma->0) =       -7.55409587


--------------------------------------------------------------------------------------------------------




----------------------------------------- Iteration    1(  10)  ---------------------------------------


    POTLOK:  cpu time    0.0420: real time    0.0416
    SETDIJ:  cpu time    0.0400: real time    0.0403
     EDDAV:  cpu time    5.5702: real time    5.5802
       DOS:  cpu time    0.0020: real time    0.0023
    CHARGE:  cpu time    0.1140: real time    0.1136
    MIXING:  cpu time    0.0010: real time    0.0012
    --------------------------------------------
      LOOP:  cpu time    5.7721: real time    5.7925

 eigenvalue-minimisations  : 17232
 total energy-change (2. order) : 0.2095256E-02  (-0.7411127E-03)
[...]
      4     -12.3995      1.00000
      5      -9.1870      1.00000
      6      -8.4154      1.00000
      7      -8.3790      1.00000
      8      -8.3385      1.00000
      9      -8.3180      1.00000
     10      -7.5334      1.00000
     11      -1.9162      1.00000
     12      -0.2731      1.00000
     13       0.0912      1.00000
     14       3.7257      0.00000
     15       4.9857      0.00000
     16       6.8318      0.00000
     17       7.4002      0.00000
     18       7.4883      0.00000
     19       8.7371      0.00000
     20       8.9708      0.00000
     21       9.0967      0.00000
     22      10.2769      0.00000
     23      11.4136      0.00000
     24      11.4674      0.00000

 k-point   137 :       0.2857    0.1429    0.5000
  band No.  band energies     occupation 
      1     -28.8858      1.00000
      2     -12.4956      1.00000
      3     -12.4109      1.00000
      4     -12.4005      1.00000
      5      -9.1559      1.00000
      6      -8.3999      1.00000
      7      -8.3625      1.00000
      8      -8.3436      1.00000
      9      -8.3195      1.00000
     10      -7.4022      1.00000
     11      -2.4742      1.00000
     12      -0.2022      1.00000
     13       0.0956      1.00000
     14       3.2703      0.00000
     15       4.9992      0.00000
     16       7.1763      0.00000
     17       7.6444      0.00000
     18       7.8244      0.00000
     19       8.7045      0.00000
     20       9.1703      0.00000
     21       9.4277      0.00000
     22      10.1356      0.00000
     23      11.0438      0.00000
     24      11.8758      0.00000

 k-point   138 :       0.3571    0.1429    0.5000
  band No.  band energies     occupation 
      1     -28.8844      1.00000
      2     -12.5127      1.00000
      3     -12.4189      1.00000
      4     -12.3889      1.00000
      5      -9.1365      1.00000
      6      -8.3863      1.00000
      7      -8.3539      1.00000
      8      -8.3470      1.00000
      9      -8.3205      1.00000
     10      -7.2904      1.00000
     11      -2.8575      1.00000
     12      -0.3832      1.00000
     13       0.4124      1.00000
     14       2.9153      0.00000
     15       4.9626      0.00000
     16       6.9411      0.00000
     17       8.1805      0.00000
     18       8.2726      0.00000
     19       8.8065      0.00000
     20       9.3410      0.00000
     21       9.7012      0.00000
     22      10.1282      0.00000
     23      10.6613      0.00000
     24      11.8992      0.00000

 k-point   139 :       0.4286    0.1429    0.5000
  band No.  band energies     occupation 
      1     -28.8838      1.00000
      2     -12.5187      1.00000
      3     -12.4217      1.00000
      4     -12.3848      1.00000
      5      -9.1299      1.00000
      6      -8.3805      1.00000
      7      -8.3517      1.00000
      8      -8.3481      1.00000
      9      -8.3209      1.00000
     10      -7.2452      1.00000
     11      -2.9955      1.00000
     12      -0.4442      1.00000
     13       0.5471      1.00000
     14       2.7707      0.00000
     15       4.9454      0.00000
     16       6.8509      0.00000
     17       8.3490      0.00000
     18       8.3635      0.00000
     19       9.0042      0.00000
     20       9.3798      0.00000
     21       9.9767      0.00000
     22      10.1454      0.00000
     23      10.5315      0.00000
     24      11.5293      0.00000

 k-point   140 :       0.2143    0.2143    0.5000
  band No.  band energies     occupation 
      1     -28.8859      1.00000
      2     -12.4882      1.00000
      3     -12.4162      1.00000
      4     -12.4017      1.00000
      5      -9.1559      1.00000
      6      -8.4055      1.00000
      7      -8.3621      1.00000
      8      -8.3419      1.00000
      9      -8.3207      1.00000
     10      -7.4105      1.00000
     11      -2.3795      1.00000
     12      -0.3377      1.00000
     13       0.0606      1.00000
     14       3.3643      0.00000
     15       5.5747      0.00000
     16       6.9914      0.00000
     17       7.0087      0.00000
     18       7.7850      0.00000
     19       8.7634      0.00000
     20       9.2114      0.00000
     21       9.2928      0.00000
     22      10.1228      0.00000
     23      11.2026      0.00000
     24      11.8934      0.00000

 k-point   141 :       0.2857    0.2143    0.5000
  band No.  band energies     occupation 
      1     -28.8844      1.00000
      2     -12.5001      1.00000
      3     -12.4317      1.00000
      4     -12.3893      1.00000
      5      -9.1324      1.00000
      6      -8.3940      1.00000
      7      -8.3532      1.00000
      8      -8.3440      1.00000
      9      -8.3233      1.00000
     10      -7.2897      1.00000
     11      -2.7494      1.00000
     12      -0.6469      1.00000
     13       0.3787      1.00000
     14       3.0645      0.00000
     15       5.8386      0.00000
     16       6.6154      0.00000
     17       7.5746      0.00000
     18       8.1458      0.00000
     19       8.7453      0.00000
     20       9.3140      0.00000
     21       9.3305      0.00000
     22      10.1217      0.00000
     23      10.9223      0.00000
     24      11.8116      0.00000

 k-point   142 :       0.3571    0.2143    0.5000
  band No.  band energies     occupation 
      1     -28.8835      1.00000
      2     -12.5058      1.00000
      3     -12.4412      1.00000
      4     -12.3825      1.00000
      5      -9.1200      1.00000
      6      -8.3853      1.00000
      7      -8.3509      1.00000
      8      -8.3448      1.00000
      9      -8.3249      1.00000
     10      -7.2119      1.00000
     11      -2.9593      1.00000
     12      -0.8050      1.00000
     13       0.5873      1.00000
     14       2.8804      0.00000
     15       5.8900      0.00000
     16       6.3855      0.00000
     17       8.1423      0.00000
     18       8.4352      0.00000
     19       8.8135      0.00000
     20       9.3135      0.00000
     21       9.4380      0.00000
     22       9.9833      0.00000
     23      10.9751      0.00000
     24      11.0304      0.00000

 k-point   143 :       0.2857    0.2857    0.5000
  band No.  band energies     occupation 
      1     -28.8834      1.00000
      2     -12.4964      1.00000
      3     -12.4530      1.00000
      4     -12.3817      1.00000
      5      -9.1160      1.00000
      6      -8.3874      1.00000
      7      -8.3509      1.00000
      8      -8.3428      1.00000
      9      -8.3272      1.00000
     10      -7.1998      1.00000
     11      -2.9320      1.00000
     12      -0.9497      1.00000
     13       0.5968      1.00000
     14       2.9436      0.00000
     15       6.1980      0.00000
     16       6.5755      0.00000
     17       7.6329      0.00000
     18       8.4819      0.00000
     19       8.8850      0.00000
     20       9.1487      0.00000
     21       9.2854      0.00000
     22       9.9032      0.00000
     23      10.8827      0.00000
     24      11.1494      0.00000

 k-point   144 :       0.3571    0.2857    0.5000
  band No.  band energies     occupation 
      1     -28.8830      1.00000
      2     -12.4909      1.00000
      3     -12.4648      1.00000
      4     -12.3791      1.00000
      5      -9.1101      1.00000
      6      -8.3841      1.00000
      7      -8.3513      1.00000
      8      -8.3419      1.00000
      9      -8.3291      1.00000
     10      -7.1650      1.00000
     11      -2.9969      1.00000
     12      -1.0559      1.00000
     13       0.6800      1.00000
     14       2.9052      0.00000
     15       6.0424      0.00000
     16       6.8381      0.00000
     17       7.7648      0.00000
     18       8.6545      0.00000
     19       8.9486      0.00000
     20       9.1850      0.00000
     21       9.3030      0.00000
     22       9.6836      0.00000
     23      10.2609      0.00000
     24      11.3488      0.00000


--------------------------------------------------------------------------------------------------------


 soft charge-density along one line, spin component           1
         0         1         2         3         4         5         6         7         8         9
 total charge-density along one line
 
 soft charge-density along one line, spin component           2
         0         1         2         3         4         5         6         7         8         9
 total charge-density along one line
 
 pseudopotential strength for first ion, spin component:           1
-14.753  -0.007  -0.000  -0.000  -0.000  -0.000  -0.000  -0.000
 -0.007  -2.053  -0.000  -0.000  -0.000  -0.000  -0.000  -0.000
 -0.000  -0.000 -16.985  -0.000   0.000 -16.730  -0.000   0.000
 -0.000  -0.000  -0.000 -16.973  -0.000  -0.000 -16.719  -0.000
 -0.000  -0.000   0.000  -0.000 -16.985   0.000  -0.000 -16.730
 -0.000  -0.000 -16.730  -0.000   0.000 -16.472  -0.000   0.000
 -0.000  -0.000  -0.000 -16.719  -0.000  -0.000 -16.461  -0.000
 -0.000  -0.000   0.000  -0.000 -16.730   0.000  -0.000 -16.472
  0.000   0.000  -0.000   0.000  -0.001  -0.000   0.000  -0.001
 -0.000  -0.000  -0.000  -0.000   0.000  -0.000  -0.000   0.000
  0.005   0.001   0.000  -0.000   0.000   0.000  -0.000   0.000
 -0.000  -0.000   0.000  -0.000  -0.000   0.000  -0.000  -0.000
  0.000   0.000  -0.001   0.000  -0.000  -0.001   0.000  -0.000
 pseudopotential strength for first ion, spin component:           2
-14.754  -0.007  -0.000  -0.000  -0.000  -0.000  -0.000  -0.000
 -0.007  -2.053  -0.000  -0.000  -0.000  -0.000  -0.000  -0.000
 -0.000  -0.000 -16.985  -0.000   0.000 -16.730  -0.000   0.000
 -0.000  -0.000  -0.000 -16.973  -0.000  -0.000 -16.719  -0.000
 -0.000  -0.000   0.000  -0.000 -16.985   0.000  -0.000 -16.730
 -0.000  -0.000 -16.730  -0.000   0.000 -16.472  -0.000   0.000
 -0.000  -0.000  -0.000 -16.719  -0.000  -0.000 -16.461  -0.000
 -0.000  -0.000   0.000  -0.000 -16.730   0.000  -0.000 -16.472
  0.000   0.000  -0.000   0.000  -0.001  -0.000   0.000  -0.001
 -0.000  -0.000  -0.000  -0.000   0.000  -0.000  -0.000   0.000
  0.005   0.001   0.000  -0.000   0.000   0.000  -0.000   0.000
 -0.000  -0.000   0.000  -0.000  -0.000   0.000  -0.000  -0.000
  0.000   0.000  -0.001   0.000  -0.000  -0.001   0.000  -0.000
 total augmentation occupancy for first ion, spin component:           1
  2.001  -0.003   0.000   0.000   0.000   0.000   0.000   0.000   0.000   0.000  -0.004   0.000   0.000
 -0.003   0.432   0.000   0.000   0.000   0.000   0.000   0.000   0.000  -0.000   0.010  -0.000  -0.000
  0.000   0.000   3.702   0.000   0.000  -1.745   0.000   0.000   0.000   0.000  -0.000   0.000   0.048
  0.000   0.000  -0.000   4.415  -0.000   0.000  -2.339   0.000   0.000   0.000   0.000  -0.000   0.000
  0.000   0.000   0.000  -0.000   3.702   0.000   0.000  -1.745   0.048   0.000   0.000   0.000   0.000
  0.000   0.000  -1.745   0.000   0.000   1.793  -0.000   0.000   0.000   0.000   0.000   0.000  -0.042
  0.000   0.000   0.000  -2.339  -0.000   0.000   2.273   0.000  -0.000  -0.000   0.000   0.000   0.000
  0.000   0.000   0.000   0.000  -1.745   0.000  -0.000   1.793  -0.042   0.000   0.000  -0.000   0.000
  0.000   0.000   0.000   0.000   0.048   0.000   0.000  -0.042   0.004   0.000   0.000   0.000   0.000
  0.000  -0.000   0.000   0.000   0.000   0.000  -0.000   0.000   0.000   0.015   0.000   0.000  -0.000
 -0.004   0.010  -0.000   0.000   0.000   0.000   0.000   0.000   0.000   0.000   0.003   0.000  -0.000
  0.000  -0.000   0.000   0.000   0.000   0.000   0.000   0.000   0.000   0.000   0.000   0.015   0.000
  0.000  -0.000   0.048   0.000   0.000  -0.042   0.000   0.000   0.000   0.000  -0.000   0.000   0.004
 total augmentation occupancy for first ion, spin component:           2
 -0.000  -0.000   0.000   0.000   0.000   0.000   0.000  -0.000   0.000   0.000  -0.000  -0.000   0.000
 -0.000  -0.000   0.000   0.000   0.000   0.000   0.000   0.000   0.000  -0.000  -0.000  -0.000   0.000
  0.000   0.000   0.002   0.000   0.000  -0.001  -0.000   0.000   0.000   0.000  -0.000   0.000   0.000
  0.000   0.000   0.000   0.002   0.000  -0.000  -0.001  -0.000   0.000  -0.000   0.000   0.000   0.000
  0.000   0.000   0.000   0.000   0.002   0.000  -0.000  -0.001   0.000   0.000   0.000   0.000   0.000
  0.000   0.000  -0.001   0.000   0.000  -0.000  -0.000   0.000   0.000   0.000   0.000   0.000  -0.000
  0.000   0.000   0.000  -0.001   0.000  -0.000   0.000   0.000  -0.000  -0.000   0.000   0.000  -0.000
 -0.000   0.000   0.000   0.000  -0.001   0.000   0.000  -0.000  -0.000   0.000   0.000   0.000   0.000
  0.000   0.000   0.000   0.000   0.000   0.000  -0.000  -0.000  -0.000   0.000   0.000   0.000   0.000
  0.000  -0.000   0.000   0.000   0.000   0.000   0.000   0.000   0.000  -0.000   0.000   0.000   0.000
 -0.000  -0.000  -0.000   0.000   0.000   0.000   0.000   0.000   0.000   0.000  -0.000   0.000   0.000
 -0.000  -0.000   0.000  -0.000  -0.000  -0.000   0.000  -0.000   0.000   0.000  -0.000  -0.000  -0.000
  0.000   0.000   0.000   0.000   0.000  -0.000   0.000   0.000   0.000   0.000   0.000   0.000  -0.000


------------------------ aborting loop because EDIFF is reached ----------------------------------------


 


 total charge     
 
# of ion     s       p       d       tot
----------------------------------------
  1        1.964   5.578   0.032   7.574
  2        0.600   0.429   9.863  10.892
  3        1.202   1.580   0.016   2.797
------------------------------------------------
tot        3.766   7.587   9.911  21.264
 


 magnetization (x)
 
# of ion     s       p       d       tot
----------------------------------------
  1       -0.000  -0.000  -0.000  -0.000
  2       -0.000  -0.000  -0.000  -0.000
  3       -0.000  -0.000  -0.000  -0.000
------------------------------------------------
tot       -0.000  -0.000  -0.000  -0.001
 
    CHARGE:  cpu time    0.1130: real time    0.1137
    FORLOC:  cpu time    0.0030: real time    0.0063
    FORNL :  cpu time    0.3429: real time    0.3455
    STRESS:  cpu time    1.1098: real time    1.1200
    FORCOR:  cpu time    0.0400: real time    0.0423
    FORHAR:  cpu time    0.0070: real time    0.0084
    MIXING:  cpu time    0.0020: real time    0.0022
    OFIELD:  cpu time    0.0010: real time    0.0040

  FORCE on cell =-STRESS in cart. coord.  units (eV):
  Direction    XX          YY          ZZ          XY          YZ          ZX
  --------------------------------------------------------------------------------------
  Alpha Z   104.06674   104.06674   104.06674
  Ewald    -455.16224  -455.16419  -694.21153     0.00000     0.00000    -0.00000
  Hartree   357.92177   357.92169   215.15914     0.00000    -0.00000    -0.00000
  E(xc)    -128.47059  -128.47059  -128.86645     0.00000    -0.00000    -0.00000
  Local    -110.02606  -110.02418   268.96579     0.00000     0.00000    -0.00000
  n-local   -54.02547   -51.73434   -55.25942     1.12038     0.06508    -0.45670
  augment    47.41444    47.41432    46.84577    -0.00000    -0.00000    -0.00000
  Kinetic   235.74998   238.84240   243.95433     2.95345     0.17878    -0.76607
  Fock        0.00000     0.00000     0.00000     0.00000     0.00000     0.00000
  -------------------------------------------------------------------------------------
  Total       0.16021     0.16021     0.65438     0.00000     0.00000    -0.00000
  in kB       3.23886     3.23886    13.22867     0.00000     0.00000    -0.00000
  external pressure =        6.57 kB  Pullay stress =        0.00 kB


 VOLUME and BASIS-vectors are now :
 -----------------------------------------------------------------------------
  energy-cutoff  :      520.00
  volume of cell :       79.25
      direct lattice vectors                 reciprocal lattice vectors
     2.114500000 -3.662421000  0.000000000     0.236462521 -0.136521716  0.000000000
     2.114500000  3.662421000  0.000000000     0.236462521  0.136521716  0.000000000
     0.000000000  0.000000000  5.117000000     0.000000000  0.000000000  0.195427008

  length of vectors
     4.228999625  4.228999625  5.117000000     0.273043408  0.273043408  0.195427008


 FORCES acting on ions
    electron-ion (+dipol)            ewald-force                    non-local-force                 convergence-correction
 -----------------------------------------------------------------------------------------------
   0.821E-12 -.710E-04 0.347E-13   0.216E-14 0.584E-04 -.586E-14   0.000E+00 0.139E-16 0.000E+00   -.138E-12 0.108E-07 -.261E-12
   0.209E-11 -.294E-03 0.781E-11   -.473E-14 -.714E-03 0.412E-14   0.139E-16 -.694E-16 0.000E+00   0.332E-12 0.105E-05 -.142E-12
   -.310E-12 0.527E-04 0.190E-11   0.211E-14 0.656E-03 0.175E-14   0.139E-16 0.833E-16 0.000E+00   0.298E-13 -.122E-06 0.439E-13
 -----------------------------------------------------------------------------------------------
   0.260E-11 -.312E-03 0.975E-11   -.462E-15 -.432E-15 0.000E+00   0.278E-16 0.278E-16 0.000E+00   0.225E-12 0.944E-06 -.359E-12
 
 
 POSITION                                       TOTAL-FORCE (eV/Angst)
 -----------------------------------------------------------------------------------
      0.00000      0.00000      0.00000         0.000000      0.000000      0.000000
      2.11450      1.22081      2.55850         0.000000     -0.000000      0.000000
      2.11450     -1.22081      2.55850        -0.000000      0.000000      0.000000
 -----------------------------------------------------------------------------------
    total drift:                                0.000000     -0.000311      0.000000


--------------------------------------------------------------------------------------------------------



  FREE ENERGIE OF THE ION-ELECTRON SYSTEM (eV)
  ---------------------------------------------------
  free  energy   TOTEN  =        -7.55631288 eV

  energy  without entropy=       -7.55631288  energy(sigma->0) =       -7.55631288
 


--------------------------------------------------------------------------------------------------------


    POTLOK:  cpu time    0.0880: real time    0.0917


--------------------------------------------------------------------------------------------------------


     LOOP+:  cpu time   88.8995: real time   89.6589
    4ORBIT:  cpu time    0.0000: real time    0.0000
 


 total charge     
 
# of ion     s       p       d       tot
----------------------------------------
  1        1.964   5.578   0.032   7.574
  2        0.600   0.429   9.863  10.892
  3        1.202   1.580   0.016   2.797
------------------------------------------------
tot        3.766   7.587   9.911  21.264
 


 magnetization (x)
 
# of ion     s       p       d       tot
----------------------------------------
  1       -0.000  -0.000  -0.000  -0.000
  2       -0.000  -0.000  -0.000  -0.000
  3       -0.000  -0.000  -0.000  -0.000
------------------------------------------------
tot       -0.000  -0.000  -0.000  -0.001
 

 total amount of memory used by VASP on root node    47009. kBytes
========================================================================

   base      :      30000. kBytes
   nonl-proj :      11579. kBytes
   fftplans  :        869. kBytes
   grid      :        770. kBytes
   one-center:         31. kBytes
   wavefun   :       3760. kBytes
 
  
  
 General timing and accounting informations for this job:
 ========================================================
  
                  Total CPU time used (sec):      103.656
                            User time (sec):       94.140
                          System time (sec):        9.517
                         Elapsed time (sec):      105.316
  
                   Maximum memory used (kb):      202192.
                   Average memory used (kb):           0.
  
                          Minor page faults:        61709
                          Major page faults:          400
                 Voluntary context switches:         9868
