 vasp.5.4.1 24Jun15 (build Nov 23 2015 09:58:10) complex                        
  
 executed on             LinuxIFC date 2020.06.19  18:12:33
 running on   24 total cores
 distrk:  each k-point on   24 cores,    1 groups
 distr:  one band on NCORES_PER_BAND=   4 cores,    6 groups


--------------------------------------------------------------------------------------------------------


 INCAR:
 POTCAR:    PAW_PBE O 08Apr2002                   
 POTCAR:    PAW_PBE Pb_d 06Sep2000                
 POTCAR:    PAW_PBE Ti_sv 26Sep2005               
 POTCAR:    PAW_PBE O 08Apr2002                   
   VRHFIN =O: s2p4                                                              
   LEXCH  = PE                                                                  
   EATOM  =   432.3788 eV,   31.7789 Ry                                         
                                                                                
   TITEL  = PAW_PBE O 08Apr2002                                                 
   LULTRA =        F    use ultrasoft PP ?                                      
   IUNSCR =        1    unscreen: 0-lin 1-nonlin 2-no                           
   RPACOR =    1.200    partial core radius                                     
   POMASS =   16.000; ZVAL   =    6.000    mass and valenz                      
   RCORE  =    1.520    outmost cutoff radius                                   
   RWIGS  =    1.550; RWIGS  =    0.820    wigner-seitz radius (au A)           
   ENMAX  =  400.000; ENMIN  =  300.000 eV                                      
   ICORE  =        2    local potential                                         
   LCOR   =        T    correct aug charges                                     
   LPAW   =        T    paw PP                                                  
   EAUG   =  605.392                                                            
   DEXC   =    0.000                                                            
   RMAX   =    1.553    core radius for proj-oper                               
   RAUG   =    1.300    factor for augmentation sphere                          
   RDEP   =    1.550    radius for radial grids                                 
   RDEPT  =    1.329    core radius for aug-charge                              
                                                                                
   Atomic configuration                                                         
    4 entries                                                                   
     n  l   j            E        occ.                                          
     1  0  0.50      -514.6923   2.0000                                         
     2  0  0.50       -23.9615   2.0000                                         
     2  1  0.50        -9.0305   4.0000                                         
     3  2  1.50        -9.5241   0.0000                                         
   Description                                                                  
     l       E           TYP  RCUT    TYP  RCUT                                 
     0    -23.9615318     23  1.200                                             
     0     -9.5240782     23  1.200                                             
     1     -9.0304911     23  1.520                                             
     1      8.1634956     23  1.520                                             
     2     -9.5240782      7  1.500                                             
  local pseudopotential read in
  partial core-charges read in
  partial kinetic energy density read in
  kinetic energy density of atom read in
  atomic valenz-charges read in
  non local Contribution for L=           0  read in
    real space projection operators read in
  non local Contribution for L=           0  read in
    real space projection operators read in
  non local Contribution for L=           1  read in
    real space projection operators read in
  non local Contribution for L=           1  read in
    real space projection operators read in
    PAW grid and wavefunctions read in
 
   number of l-projection  operators is LMAX  =           4
   number of lm-projection operators is LMMAX =           8
 
 POTCAR:    PAW_PBE Pb_d 06Sep2000                
   VRHFIN =Pb:                                                                  
   LEXCH  = PE                                                                  
   EATOM  =  1661.6185 eV,  122.1255 Ry                                         
                                                                                
   TITEL  = PAW_PBE Pb_d 06Sep2000                                              
   LULTRA =        F    use ultrasoft PP ?                                      
   IUNSCR =        1    unscreen: 0-lin 1-nonlin 2-no                           
   RPACOR =    2.200    partial core radius                                     
   POMASS =  207.200; ZVAL   =   14.000    mass and valenz                      
   RCORE  =    2.500    outmost cutoff radius                                   
   RWIGS  =    3.260; RWIGS  =    1.725    wigner-seitz radius (au A)           
   ENMAX  =  237.835; ENMIN  =  178.376 eV                                      
   ICORE  =        3    local potential                                         
   LCOR   =        T    correct aug charges                                     
   LPAW   =        T    paw PP                                                  
   EAUG   =  391.914                                                            
   DEXC   =    0.000                                                            
   RMAX   =    2.565    core radius for proj-oper                               
   RAUG   =    1.300    factor for augmentation sphere                          
   RDEP   =    2.643    radius for radial grids                                 
   RDEPT  =    2.092    core radius for aug-charge                              
                                                                                
   Atomic configuration                                                         
   16 entries                                                                   
     n  l   j            E        occ.                                          
     1  0  0.50    -88091.8466   2.0000                                         
     2  0  0.50    -15753.4197   2.0000                                         
     2  1  1.50    -13508.1797   6.0000                                         
     3  0  0.50     -3781.7194   2.0000                                         
     3  1  1.50     -3138.2529   6.0000                                         
     3  2  2.50     -2483.2977  10.0000                                         
     4  0  0.50      -856.2895   2.0000                                         
     4  1  1.50      -645.4942   6.0000                                         
     4  2  2.50      -401.8768  10.0000                                         
     4  3  3.50      -132.9059  14.0000                                         
     5  0  0.50      -144.0950   2.0000                                         
     5  1  1.50       -85.7879   6.0000                                         
     5  2  2.50       -21.1769  10.0000                                         
     6  0  0.50       -12.0372   2.0000                                         
     6  1  1.50        -3.4971   2.0000                                         
     5  3  2.50        -2.7212   0.0000                                         
   Description                                                                  
     l       E           TYP  RCUT    TYP  RCUT                                 
     2    -21.1768523     23  2.500                                             
     2      1.3605826     23  2.500                                             
     0    -12.0371562     23  2.500                                             
     0     13.6058260     23  2.500                                             
     1     -3.4971339     23  2.500                                             
     1     13.6058260     23  2.500                                             
     3     -1.3605826      7  2.500                                             
  local pseudopotential read in
  partial core-charges read in
  partial kinetic energy density read in
  atomic valenz-charges read in
  non local Contribution for L=           2  read in
    real space projection operators read in
  non local Contribution for L=           2  read in
    real space projection operators read in
  non local Contribution for L=           0  read in
    real space projection operators read in
  non local Contribution for L=           0  read in
    real space projection operators read in
  non local Contribution for L=           1  read in
    real space projection operators read in
  non local Contribution for L=           1  read in
    real space projection operators read in
    PAW grid and wavefunctions read in
 
   number of l-projection  operators is LMAX  =           6
   number of lm-projection operators is LMMAX =          18
 
 POTCAR:    PAW_PBE Ti_sv 26Sep2005               
   VRHFIN =Ti: 3p4s3d                                                           
   LEXCH  = PE                                                                  
   EATOM  =  1588.0892 eV,  116.7213 Ry                                         
                                                                                
   TITEL  = PAW_PBE Ti_sv 26Sep2005                                             
   LULTRA =        F    use ultrasoft PP ?                                      
   IUNSCR =        1    unscreen: 0-lin 1-nonlin 2-no                           
   RPACOR =    2.000    partial core radius                                     
   POMASS =   47.880; ZVAL   =   12.000    mass and valenz                      
   RCORE  =    2.300    outmost cutoff radius                                   
   RWIGS  =    2.300; RWIGS  =    1.217    wigner-seitz radius (au A)           
   ENMAX  =  274.610; ENMIN  =  205.957 eV                                      
   ICORE  =        3    local potential                                         
   LCOR   =        T    correct aug charges                                     
   LPAW   =        T    paw PP                                                  
   EAUG   =  482.848                                                            
   RMAX   =    2.348    core radius for proj-oper                               
   RAUG   =    1.300    factor for augmentation sphere                          
   RDEP   =    2.381    radius for radial grids                                 
   RDEPT  =    1.930    core radius for aug-charge                              
                                                                                
   Atomic configuration                                                         
    8 entries                                                                   
     n  l   j            E        occ.                                          
     1  0  0.50     -4865.3608   2.0000                                         
     2  0  0.50      -533.1368   2.0000                                         
     2  1  1.50      -440.5031   6.0000                                         
     3  0  0.50       -59.3186   2.0000                                         
     4  0  0.50        -3.7291   1.0000                                         
     3  1  1.50       -35.7012   6.0000                                         
     3  2  2.50        -1.9157   3.0000                                         
     4  3  2.50        -1.3606   0.0000                                         
   Description                                                                  
     l       E           TYP  RCUT    TYP  RCUT                                 
     0    -59.3185931     23  1.800                                             
     0     -3.7290822     23  2.300                                             
     1    -35.7012045     23  2.300                                             
     1     -1.3605826     23  2.300                                             
     2     -1.9156920     23  2.300                                             
     2     -0.0236318     23  2.300                                             
     3     -1.3605826     23  2.300                                             
  local pseudopotential read in
  partial core-charges read in
  partial kinetic energy density read in
  atomic valenz-charges read in
  non local Contribution for L=           0  read in
    real space projection operators read in
  non local Contribution for L=           0  read in
    real space projection operators read in
  non local Contribution for L=           1  read in
    real space projection operators read in
  non local Contribution for L=           1  read in
    real space projection operators read in
  non local Contribution for L=           2  read in
    real space projection operators read in
  non local Contribution for L=           2  read in
    real space projection operators read in
    PAW grid and wavefunctions read in
 
   number of l-projection  operators is LMAX  =           6
   number of lm-projection operators is LMMAX =          18
 
  PAW_PBE O 08Apr2002                   :
 energy of atom  1       EATOM= -432.3788
 kinetic energy error for atom=    0.0208 (will be added to EATOM!!)
  PAW_PBE Pb_d 06Sep2000                :
 energy of atom  2       EATOM=-1661.6185
 kinetic energy error for atom=    0.0037 (will be added to EATOM!!)
  PAW_PBE Ti_sv 26Sep2005               :
 energy of atom  3       EATOM=-1588.0892
 kinetic energy error for atom=    0.0042 (will be added to EATOM!!)
 
 
 POSCAR: O3 Pb1 Ti1                              
  positions in direct lattice
  velocities in cartesian coordinates
 exchange correlation table for  LEXCH =        8
   RHO(1)=    0.500       N(1)  =     2000
   RHO(2)=  100.500       N(2)  =     4000
 


--------------------------------------------------------------------------------------------------------


 ion  position               nearest neighbor table
   1  0.000  0.500  0.612-   5 2.01   5 2.01   4 2.59   4 2.59
   2  0.500  0.000  0.612-   5 2.01   5 2.01   4 2.59   4 2.59
   3  0.500  0.500  0.100-   5 1.87   5 2.22   4 2.84   4 2.84   4 2.84   4 2.84
   4  0.000  0.000  0.016-   1 2.59   2 2.59   1 2.59   2 2.59   3 2.84   3 2.84   3 2.84   3 2.84
                             5 3.39   5 3.39   5 3.39   5 3.39
   5  0.500  0.500  0.558-   3 1.87   2 2.01   1 2.01   2 2.01   1 2.01   3 2.22   4 3.39   4 3.39
                             4 3.39   4 3.39
 
  LATTYP: Found a simple tetragonal cell.
 ALAT       =     3.9882456926
 C/A-ratio  =     1.0262016854
  
  Lattice vectors:
  
 A1 = (   3.9882456926,   0.0000000000,   0.0000000000)
 A2 = (   0.0000000000,   3.9882456926,   0.0000000000)
 A3 = (   0.0000000000,   0.0000000000,   4.0927444516)


Analysis of symmetry for initial positions (statically):
=====================================================================
 Subroutine PRICEL returns:
 Original cell was already a primitive cell.
 

 Routine SETGRP: Setting up the symmetry group for a 
 simple tetragonal supercell.


 Subroutine GETGRP returns: Found  8 space group operations
 (whereof  8 operations were pure point group operations)
 out of a pool of 16 trial point group operations.


The static configuration has the point symmetry C_4v.


Analysis of symmetry for dynamics (positions and initial velocities):
=====================================================================
 Subroutine PRICEL returns:
 Original cell was already a primitive cell.
 

 Routine SETGRP: Setting up the symmetry group for a 
 simple tetragonal supercell.


 Subroutine GETGRP returns: Found  8 space group operations
 (whereof  8 operations were pure point group operations)
 out of a pool of 16 trial point group operations.


The dynamic configuration has the point symmetry C_4v.
 
 
 KPOINTS: K-Mesh                                  

Automatic generation of k-mesh.
Space group operators:
 irot       det(A)        alpha          n_x          n_y          n_z        tau_x        tau_y        tau_z
    1     1.000000     0.000000     1.000000     0.000000     0.000000     0.000000     0.000000     0.000000
    2     1.000000    90.000000     0.000000     0.000000    -1.000000     0.000000     0.000000     0.000000
    3     1.000000   180.000000     0.000000     0.000000     1.000000     0.000000     0.000000     0.000000
    4     1.000000    90.000000     0.000000     0.000000     1.000000     0.000000     0.000000     0.000000
    5    -1.000000   180.000000     0.000000     1.000000     0.000000     0.000000     0.000000     0.000000
    6    -1.000000   180.000000     0.707107     0.707107     0.000000     0.000000     0.000000     0.000000
    7    -1.000000   180.000000     1.000000     0.000000     0.000000     0.000000     0.000000     0.000000
    8    -1.000000   180.000000     0.707107    -0.707107     0.000000     0.000000     0.000000     0.000000
 
 Subroutine IBZKPT returns following result:
 ===========================================
 
 Found    196 irreducible k-points:
 
 Following reciprocal coordinates:
            Coordinates               Weight
  0.000000  0.000000  0.000000      1.000000
  0.076923  0.000000  0.000000      4.000000
  0.153846  0.000000  0.000000      4.000000
  0.230769  0.000000  0.000000      4.000000
  0.307692  0.000000  0.000000      4.000000
  0.384615  0.000000  0.000000      4.000000
  0.461538  0.000000  0.000000      4.000000
  0.076923  0.076923  0.000000      4.000000
  0.153846  0.076923  0.000000      8.000000
  0.230769  0.076923  0.000000      8.000000
  0.307692  0.076923  0.000000      8.000000
  0.384615  0.076923  0.000000      8.000000
  0.461538  0.076923  0.000000      8.000000
  0.153846  0.153846  0.000000      4.000000
  0.230769  0.153846  0.000000      8.000000
  0.307692  0.153846  0.000000      8.000000
  0.384615  0.153846  0.000000      8.000000
  0.461538  0.153846  0.000000      8.000000
  0.230769  0.230769  0.000000      4.000000
  0.307692  0.230769  0.000000      8.000000
  0.384615  0.230769  0.000000      8.000000
  0.461538  0.230769  0.000000      8.000000
  0.307692  0.307692  0.000000      4.000000
  0.384615  0.307692  0.000000      8.000000
  0.461538  0.307692  0.000000      8.000000
  0.384615  0.384615  0.000000      4.000000
  0.461538  0.384615  0.000000      8.000000
  0.461538  0.461538  0.000000      4.000000
  0.000000  0.000000  0.083333      2.000000
  0.076923  0.000000  0.083333      8.000000
  0.153846  0.000000  0.083333      8.000000
  0.230769  0.000000  0.083333      8.000000
  0.307692  0.000000  0.083333      8.000000
  0.384615  0.000000  0.083333      8.000000
  0.461538  0.000000  0.083333      8.000000
  0.076923  0.076923  0.083333      8.000000
  0.153846  0.076923  0.083333     16.000000
  0.230769  0.076923  0.083333     16.000000
  0.307692  0.076923  0.083333     16.000000
  0.384615  0.076923  0.083333     16.000000
  0.461538  0.076923  0.083333     16.000000
  0.153846  0.153846  0.083333      8.000000
  0.230769  0.153846  0.083333     16.000000
  0.307692  0.153846  0.083333     16.000000
  0.384615  0.153846  0.083333     16.000000
  0.461538  0.153846  0.083333     16.000000
  0.230769  0.230769  0.083333      8.000000
  0.307692  0.230769  0.083333     16.000000
  0.384615  0.230769  0.083333     16.000000
  0.461538  0.230769  0.083333     16.000000
  0.307692  0.307692  0.083333      8.000000
  0.384615  0.307692  0.083333     16.000000
  0.461538  0.307692  0.083333     16.000000
  0.384615  0.384615  0.083333      8.000000
  0.461538  0.384615  0.083333     16.000000
  0.461538  0.461538  0.083333      8.000000
  0.000000  0.000000  0.166667      2.000000
  0.076923  0.000000  0.166667      8.000000
  0.153846  0.000000  0.166667      8.000000
  0.230769  0.000000  0.166667      8.000000
  0.307692  0.000000  0.166667      8.000000
  0.384615  0.000000  0.166667      8.000000
  0.461538  0.000000  0.166667      8.000000
  0.076923  0.076923  0.166667      8.000000
  0.153846  0.076923  0.166667     16.000000
  0.230769  0.076923  0.166667     16.000000
  0.307692  0.076923  0.166667     16.000000
  0.384615  0.076923  0.166667     16.000000
  0.461538  0.076923  0.166667     16.000000
  0.153846  0.153846  0.166667      8.000000
  0.230769  0.153846  0.166667     16.000000
  0.307692  0.153846  0.166667     16.000000
  0.384615  0.153846  0.166667     16.000000
  0.461538  0.153846  0.166667     16.000000
  0.230769  0.230769  0.166667      8.000000
  0.307692  0.230769  0.166667     16.000000
  0.384615  0.230769  0.166667     16.000000
  0.461538  0.230769  0.166667     16.000000
  0.307692  0.307692  0.166667      8.000000
  0.384615  0.307692  0.166667     16.000000
  0.461538  0.307692  0.166667     16.000000
  0.384615  0.384615  0.166667      8.000000
  0.461538  0.384615  0.166667     16.000000
  0.461538  0.461538  0.166667      8.000000
  0.000000  0.000000  0.250000      2.000000
  0.076923  0.000000  0.250000      8.000000
  0.153846  0.000000  0.250000      8.000000
  0.230769  0.000000  0.250000      8.000000
  0.307692  0.000000  0.250000      8.000000
  0.384615  0.000000  0.250000      8.000000
  0.461538  0.000000  0.250000      8.000000
  0.076923  0.076923  0.250000      8.000000
  0.153846  0.076923  0.250000     16.000000
  0.230769  0.076923  0.250000     16.000000
  0.307692  0.076923  0.250000     16.000000
  0.384615  0.076923  0.250000     16.000000
  0.461538  0.076923  0.250000     16.000000
  0.153846  0.153846  0.250000      8.000000
  0.230769  0.153846  0.250000     16.000000
  0.307692  0.153846  0.250000     16.000000
  0.384615  0.153846  0.250000     16.000000
  0.461538  0.153846  0.250000     16.000000
  0.230769  0.230769  0.250000      8.000000
  0.307692  0.230769  0.250000     16.000000
  0.384615  0.230769  0.250000     16.000000
  0.461538  0.230769  0.250000     16.000000
  0.307692  0.307692  0.250000      8.000000
  0.384615  0.307692  0.250000     16.000000
  0.461538  0.307692  0.250000     16.000000
  0.384615  0.384615  0.250000      8.000000
  0.461538  0.384615  0.250000     16.000000
  0.461538  0.461538  0.250000      8.000000
  0.000000  0.000000  0.333333      2.000000
  0.076923  0.000000  0.333333      8.000000
  0.153846  0.000000  0.333333      8.000000
  0.230769  0.000000  0.333333      8.000000
  0.307692  0.000000  0.333333      8.000000
  0.384615  0.000000  0.333333      8.000000
  0.461538  0.000000  0.333333      8.000000
  0.076923  0.076923  0.333333      8.000000
  0.153846  0.076923  0.333333     16.000000
  0.230769  0.076923  0.333333     16.000000
  0.307692  0.076923  0.333333     16.000000
  0.384615  0.076923  0.333333     16.000000
  0.461538  0.076923  0.333333     16.000000
  0.153846  0.153846  0.333333      8.000000
  0.230769  0.153846  0.333333     16.000000
  0.307692  0.153846  0.333333     16.000000
  0.384615  0.153846  0.333333     16.000000
  0.461538  0.153846  0.333333     16.000000
  0.230769  0.230769  0.333333      8.000000
  0.307692  0.230769  0.333333     16.000000
  0.384615  0.230769  0.333333     16.000000
  0.461538  0.230769  0.333333     16.000000
  0.307692  0.307692  0.333333      8.000000
  0.384615  0.307692  0.333333     16.000000
  0.461538  0.307692  0.333333     16.000000
  0.384615  0.384615  0.333333      8.000000
  0.461538  0.384615  0.333333     16.000000
  0.461538  0.461538  0.333333      8.000000
  0.000000  0.000000  0.416667      2.000000
  0.076923  0.000000  0.416667      8.000000
  0.153846  0.000000  0.416667      8.000000
  0.230769  0.000000  0.416667      8.000000
  0.307692  0.000000  0.416667      8.000000
  0.384615  0.000000  0.416667      8.000000
  0.461538  0.000000  0.416667      8.000000
  0.076923  0.076923  0.416667      8.000000
  0.153846  0.076923  0.416667     16.000000
  0.230769  0.076923  0.416667     16.000000
  0.307692  0.076923  0.416667     16.000000
  0.384615  0.076923  0.416667     16.000000
  0.461538  0.076923  0.416667     16.000000
  0.153846  0.153846  0.416667      8.000000
  0.230769  0.153846  0.416667     16.000000
  0.307692  0.153846  0.416667     16.000000
  0.384615  0.153846  0.416667     16.000000
  0.461538  0.153846  0.416667     16.000000
  0.230769  0.230769  0.416667      8.000000
  0.307692  0.230769  0.416667     16.000000
  0.384615  0.230769  0.416667     16.000000
  0.461538  0.230769  0.416667     16.000000
  0.307692  0.307692  0.416667      8.000000
  0.384615  0.307692  0.416667     16.000000
  0.461538  0.307692  0.416667     16.000000
  0.384615  0.384615  0.416667      8.000000
  0.461538  0.384615  0.416667     16.000000
  0.461538  0.461538  0.416667      8.000000
  0.000000  0.000000  0.500000      1.000000
  0.076923  0.000000  0.500000      4.000000
  0.153846  0.000000  0.500000      4.000000
  0.230769  0.000000  0.500000      4.000000
  0.307692  0.000000  0.500000      4.000000
  0.384615  0.000000  0.500000      4.000000
  0.461538  0.000000  0.500000      4.000000
  0.076923  0.076923  0.500000      4.000000
  0.153846  0.076923  0.500000      8.000000
  0.230769  0.076923  0.500000      8.000000
  0.307692  0.076923  0.500000      8.000000
  0.384615  0.076923  0.500000      8.000000
  0.461538  0.076923  0.500000      8.000000
  0.153846  0.153846  0.500000      4.000000
  0.230769  0.153846  0.500000      8.000000
  0.307692  0.153846  0.500000      8.000000
  0.384615  0.153846  0.500000      8.000000
  0.461538  0.153846  0.500000      8.000000
  0.230769  0.230769  0.500000      4.000000
  0.307692  0.230769  0.500000      8.000000
  0.384615  0.230769  0.500000      8.000000
  0.461538  0.230769  0.500000      8.000000
  0.307692  0.307692  0.500000      4.000000
  0.384615  0.307692  0.500000      8.000000
  0.461538  0.307692  0.500000      8.000000
  0.384615  0.384615  0.500000      4.000000
  0.461538  0.384615  0.500000      8.000000
  0.461538  0.461538  0.500000      4.000000
 
 Following cartesian coordinates:
            Coordinates               Weight
  0.000000  0.000000  0.000000      1.000000
  0.019287  0.000000  0.000000      4.000000
  0.038575  0.000000  0.000000      4.000000
  0.057862  0.000000  0.000000      4.000000
  0.077150  0.000000  0.000000      4.000000
  0.096437  0.000000  0.000000      4.000000
  0.115725  0.000000  0.000000      4.000000
  0.019287  0.019287  0.000000      4.000000
  0.038575  0.019287  0.000000      8.000000
  0.057862  0.019287  0.000000      8.000000
  0.077150  0.019287  0.000000      8.000000
  0.096437  0.019287  0.000000      8.000000
  0.115725  0.019287  0.000000      8.000000
  0.038575  0.038575  0.000000      4.000000
  0.057862  0.038575  0.000000      8.000000
  0.077150  0.038575  0.000000      8.000000
  0.096437  0.038575  0.000000      8.000000
  0.115725  0.038575  0.000000      8.000000
  0.057862  0.057862  0.000000      4.000000
  0.077150  0.057862  0.000000      8.000000
  0.096437  0.057862  0.000000      8.000000
  0.115725  0.057862  0.000000      8.000000
  0.077150  0.077150  0.000000      4.000000
  0.096437  0.077150  0.000000      8.000000
  0.115725  0.077150  0.000000      8.000000
  0.096437  0.096437  0.000000      4.000000
  0.115725  0.096437  0.000000      8.000000
  0.115725  0.115725  0.000000      4.000000
  0.000000  0.000000  0.020361      2.000000
  0.019287  0.000000  0.020361      8.000000
  0.038575  0.000000  0.020361      8.000000
  0.057862  0.000000  0.020361      8.000000
  0.077150  0.000000  0.020361      8.000000
  0.096437  0.000000  0.020361      8.000000
  0.115725  0.000000  0.020361      8.000000
  0.019287  0.019287  0.020361      8.000000
  0.038575  0.019287  0.020361     16.000000
  0.057862  0.019287  0.020361     16.000000
  0.077150  0.019287  0.020361     16.000000
  0.096437  0.019287  0.020361     16.000000
  0.115725  0.019287  0.020361     16.000000
  0.038575  0.038575  0.020361      8.000000
  0.057862  0.038575  0.020361     16.000000
  0.077150  0.038575  0.020361     16.000000
  0.096437  0.038575  0.020361     16.000000
  0.115725  0.038575  0.020361     16.000000
  0.057862  0.057862  0.020361      8.000000
  0.077150  0.057862  0.020361     16.000000
  0.096437  0.057862  0.020361     16.000000
  0.115725  0.057862  0.020361     16.000000
  0.077150  0.077150  0.020361      8.000000
  0.096437  0.077150  0.020361     16.000000
  0.115725  0.077150  0.020361     16.000000
  0.096437  0.096437  0.020361      8.000000
  0.115725  0.096437  0.020361     16.000000
  0.115725  0.115725  0.020361      8.000000
  0.000000  0.000000  0.040722      2.000000
  0.019287  0.000000  0.040722      8.000000
  0.038575  0.000000  0.040722      8.000000
  0.057862  0.000000  0.040722      8.000000
  0.077150  0.000000  0.040722      8.000000
  0.096437  0.000000  0.040722      8.000000
  0.115725  0.000000  0.040722      8.000000
  0.019287  0.019287  0.040722      8.000000
  0.038575  0.019287  0.040722     16.000000
  0.057862  0.019287  0.040722     16.000000
  0.077150  0.019287  0.040722     16.000000
  0.096437  0.019287  0.040722     16.000000
  0.115725  0.019287  0.040722     16.000000
  0.038575  0.038575  0.040722      8.000000
  0.057862  0.038575  0.040722     16.000000
  0.077150  0.038575  0.040722     16.000000
  0.096437  0.038575  0.040722     16.000000
  0.115725  0.038575  0.040722     16.000000
  0.057862  0.057862  0.040722      8.000000
  0.077150  0.057862  0.040722     16.000000
  0.096437  0.057862  0.040722     16.000000
  0.115725  0.057862  0.040722     16.000000
  0.077150  0.077150  0.040722      8.000000
  0.096437  0.077150  0.040722     16.000000
  0.115725  0.077150  0.040722     16.000000
  0.096437  0.096437  0.040722      8.000000
  0.115725  0.096437  0.040722     16.000000
  0.115725  0.115725  0.040722      8.000000
  0.000000  0.000000  0.061084      2.000000
  0.019287  0.000000  0.061084      8.000000
  0.038575  0.000000  0.061084      8.000000
  0.057862  0.000000  0.061084      8.000000
  0.077150  0.000000  0.061084      8.000000
  0.096437  0.000000  0.061084      8.000000
  0.115725  0.000000  0.061084      8.000000
  0.019287  0.019287  0.061084      8.000000
  0.038575  0.019287  0.061084     16.000000
  0.057862  0.019287  0.061084     16.000000
  0.077150  0.019287  0.061084     16.000000
  0.096437  0.019287  0.061084     16.000000
  0.115725  0.019287  0.061084     16.000000
  0.038575  0.038575  0.061084      8.000000
  0.057862  0.038575  0.061084     16.000000
  0.077150  0.038575  0.061084     16.000000
  0.096437  0.038575  0.061084     16.000000
  0.115725  0.038575  0.061084     16.000000
  0.057862  0.057862  0.061084      8.000000
  0.077150  0.057862  0.061084     16.000000
  0.096437  0.057862  0.061084     16.000000
  0.115725  0.057862  0.061084     16.000000
  0.077150  0.077150  0.061084      8.000000
  0.096437  0.077150  0.061084     16.000000
  0.115725  0.077150  0.061084     16.000000
  0.096437  0.096437  0.061084      8.000000
  0.115725  0.096437  0.061084     16.000000
  0.115725  0.115725  0.061084      8.000000
  0.000000  0.000000  0.081445      2.000000
  0.019287  0.000000  0.081445      8.000000
  0.038575  0.000000  0.081445      8.000000
  0.057862  0.000000  0.081445      8.000000
  0.077150  0.000000  0.081445      8.000000
  0.096437  0.000000  0.081445      8.000000
  0.115725  0.000000  0.081445      8.000000
  0.019287  0.019287  0.081445      8.000000
  0.038575  0.019287  0.081445     16.000000
  0.057862  0.019287  0.081445     16.000000
  0.077150  0.019287  0.081445     16.000000
  0.096437  0.019287  0.081445     16.000000
  0.115725  0.019287  0.081445     16.000000
  0.038575  0.038575  0.081445      8.000000
  0.057862  0.038575  0.081445     16.000000
  0.077150  0.038575  0.081445     16.000000
  0.096437  0.038575  0.081445     16.000000
  0.115725  0.038575  0.081445     16.000000
  0.057862  0.057862  0.081445      8.000000
  0.077150  0.057862  0.081445     16.000000
  0.096437  0.057862  0.081445     16.000000
  0.115725  0.057862  0.081445     16.000000
  0.077150  0.077150  0.081445      8.000000
  0.096437  0.077150  0.081445     16.000000
  0.115725  0.077150  0.081445     16.000000
  0.096437  0.096437  0.081445      8.000000
  0.115725  0.096437  0.081445     16.000000
  0.115725  0.115725  0.081445      8.000000
  0.000000  0.000000  0.101806      2.000000
  0.019287  0.000000  0.101806      8.000000
  0.038575  0.000000  0.101806      8.000000
  0.057862  0.000000  0.101806      8.000000
  0.077150  0.000000  0.101806      8.000000
  0.096437  0.000000  0.101806      8.000000
  0.115725  0.000000  0.101806      8.000000
  0.019287  0.019287  0.101806      8.000000
  0.038575  0.019287  0.101806     16.000000
  0.057862  0.019287  0.101806     16.000000
  0.077150  0.019287  0.101806     16.000000
  0.096437  0.019287  0.101806     16.000000
  0.115725  0.019287  0.101806     16.000000
  0.038575  0.038575  0.101806      8.000000
  0.057862  0.038575  0.101806     16.000000
  0.077150  0.038575  0.101806     16.000000
  0.096437  0.038575  0.101806     16.000000
  0.115725  0.038575  0.101806     16.000000
  0.057862  0.057862  0.101806      8.000000
  0.077150  0.057862  0.101806     16.000000
  0.096437  0.057862  0.101806     16.000000
  0.115725  0.057862  0.101806     16.000000
  0.077150  0.077150  0.101806      8.000000
  0.096437  0.077150  0.101806     16.000000
  0.115725  0.077150  0.101806     16.000000
  0.096437  0.096437  0.101806      8.000000
  0.115725  0.096437  0.101806     16.000000
  0.115725  0.115725  0.101806      8.000000
  0.000000  0.000000  0.122167      1.000000
  0.019287  0.000000  0.122167      4.000000
  0.038575  0.000000  0.122167      4.000000
  0.057862  0.000000  0.122167      4.000000
  0.077150  0.000000  0.122167      4.000000
  0.096437  0.000000  0.122167      4.000000
  0.115725  0.000000  0.122167      4.000000
  0.019287  0.019287  0.122167      4.000000
  0.038575  0.019287  0.122167      8.000000
  0.057862  0.019287  0.122167      8.000000
  0.077150  0.019287  0.122167      8.000000
  0.096437  0.019287  0.122167      8.000000
  0.115725  0.019287  0.122167      8.000000
  0.038575  0.038575  0.122167      4.000000
  0.057862  0.038575  0.122167      8.000000
  0.077150  0.038575  0.122167      8.000000
  0.096437  0.038575  0.122167      8.000000
  0.115725  0.038575  0.122167      8.000000
  0.057862  0.057862  0.122167      4.000000
  0.077150  0.057862  0.122167      8.000000
  0.096437  0.057862  0.122167      8.000000
  0.115725  0.057862  0.122167      8.000000
  0.077150  0.077150  0.122167      4.000000
  0.096437  0.077150  0.122167      8.000000
  0.115725  0.077150  0.122167      8.000000
  0.096437  0.096437  0.122167      4.000000
  0.115725  0.096437  0.122167      8.000000
  0.115725  0.115725  0.122167      4.000000
 


--------------------------------------------------------------------------------------------------------




 Dimension of arrays:
   k-points           NKPTS =    196   k-points in BZ     NKDIM =    196   number of bands    NBANDS=     30
   number of dos      NEDOS =    301   number of ions     NIONS =      5
   non local maximal  LDIM  =      6   non local SUM 2l+1 LMDIM =     18
   total plane-waves  NPLWV =  27000
   max r-space proj   IRMAX =      1   max aug-charges    IRDMAX= 176339
   dimension x,y,z NGX =    30 NGY =   30 NGZ =   30
   dimension x,y,z NGXF=    60 NGYF=   60 NGZF=   60
   support grid    NGXF=   120 NGYF=  120 NGZF=  120
   ions per type =               3   1   1
 NGX,Y,Z   is equivalent  to a cutoff of  12.51, 12.51, 12.19 a.u.
 NGXF,Y,Z  is equivalent  to a cutoff of  25.01, 25.01, 24.37 a.u.


 I would recommend the setting:
   dimension x,y,z NGX =    30 NGY =   30 NGZ =   30
 SYSTEM =  matgen-scf                              
 POSCAR =  O3 Pb1 Ti1                              

 Startparameter for this run:
   NWRITE =      2    write-flag & timer
   PREC   = accura    normal or accurate (medium, high low for compatibility)
   ISTART =      0    job   : 0-new  1-cont  2-samecut
   ICHARG =      2    charge: 1-file 2-atom 10-const
   ISPIN  =      1    spin polarized calculation?
   LNONCOLLINEAR =      F non collinear calculations
   LSORBIT =      F    spin-orbit coupling
   INIWAV =      1    electr: 0-lowe 1-rand  2-diag
   LASPH  =      F    aspherical Exc in radial PAW
   METAGGA=      F    non-selfconsistent MetaGGA calc.

 Electronic Relaxation 1
   ENCUT  =  520.0 eV  38.22 Ry    6.18 a.u.   7.42  7.42  7.61*2*pi/ulx,y,z
   ENINI  =  520.0     initial cutoff
   ENAUG  =  605.4 eV  augmentation charge cutoff
   NELM   =    140;   NELMIN=  6; NELMDL= -5     # of ELM steps 
   EDIFF  = 0.1E-03   stopping-criterion for ELM
   LREAL  =      F    real-space projection
   NLSPLINE    = F    spline interpolate recip. space projectors
   LCOMPAT=      F    compatible to vasp.4.4
   GGA_COMPAT  = T    GGA compatible to vasp.4.4-vasp.4.6
   LMAXPAW     = -100 max onsite density
   LMAXMIX     =    4 max onsite mixed and CHGCAR
   VOSKOWN=      0    Vosko Wilk Nusair interpolation
   ROPT   =    0.00000   0.00000   0.00000
 Ionic relaxation
   EDIFFG = -.1E-01   stopping-criterion for IOM
   NSW    =      0    number of steps for IOM
   NBLOCK =      1;   KBLOCK =      1    inner block; outer block 
   IBRION =     -1    ionic relax: 0-MD 1-quasi-New 2-CG
   NFREE  =      0    steps in history (QN), initial steepest desc. (CG)
   ISIF   =      2    stress and relaxation
   IWAVPR =     10    prediction:  0-non 1-charg 2-wave 3-comb
   ISYM   =      2    0-nonsym 1-usesym 2-fastsym
   LCORR  =      T    Harris-Foulkes like correction to forces

   POTIM  = 0.0500    time-step for ionic-motion
   TEIN   =    0.0    initial temperature
   TEBEG  =    0.0;   TEEND  =   0.0 temperature during run
   SMASS  =  -3.00    Nose mass-parameter (am)
   estimated Nose-frequenzy (Omega)   =  0.10E-29 period in steps =****** mass=  -0.363E-27a.u.
   SCALEE = 1.0000    scale energy and forces
   NPACO  =    256;   APACO  = 16.0  distance and # of slots for P.C.
   PSTRESS=    0.0 pullay stress

  Mass of Ions in am
   POMASS =  16.00207.20 47.88
  Ionic Valenz
   ZVAL   =   6.00 14.00 12.00
  Atomic Wigner-Seitz radii
   RWIGS  =  -1.00 -1.00 -1.00
  virtual crystal weights 
   VCA    =   1.00  1.00  1.00
   NELECT =      44.0000    total number of electrons
   NUPDOWN=      -1.0000    fix difference up-down

 DOS related values:
   EMIN   =  10.00;   EMAX   =-10.00  energy-range for DOS
   EFERMI =   0.00
   ISMEAR =     0;   SIGMA  =   0.05  broadening in eV -4-tet -1-fermi 0-gaus

 Electronic relaxation 2 (details)
   IALGO  =     38    algorithm
   LDIAG  =      T    sub-space diagonalisation (order eigenvalues)
   LSUBROT=      F    optimize rotation matrix (better conditioning)
   TURBO    =      0    0=normal 1=particle mesh
   IRESTART =      0    0=no restart 2=restart with 2 vectors
   NREBOOT  =      0    no. of reboots
   NMIN     =      0    reboot dimension
   EREF     =   0.00    reference energy to select bands
   IMIX   =      4    mixing-type and parameters
     AMIX     =   0.10;   BMIX     =  1.20
     AMIX_MAG =   0.40;   BMIX_MAG =  1.20
     AMIN     =   0.10
     WC   =   100.;   INIMIX=   1;  MIXPRE=   1;  MAXMIX= -45

 Intra band minimization:
   WEIMIN = 0.0000     energy-eigenvalue tresh-hold
   EBREAK =  0.83E-06  absolut break condition
   DEPER  =   0.30     relativ break condition  

   TIME   =   0.40     timestep for ELM

  volume/ion in A,a.u.               =      13.02        87.86
  Fermi-wavevector in a.u.,A,eV,Ry     =   1.436701  2.714970 28.083899  2.064108
  Thomas-Fermi vector in A             =   2.555860
 
 Write flags
   LWAVE  =      F    write WAVECAR
   LCHARG =      T    write CHGCAR
   LVTOT  =      F    write LOCPOT, total local potential
   LVHAR  =      F    write LOCPOT, Hartree potential only
   LELF   =      F    write electronic localiz. function (ELF)
   LORBIT =     11    0 simple, 1 ext, 2 COOP (PROOUT)


 Dipole corrections
   LMONO  =      F    monopole corrections only (constant potential shift)
   LDIPOL =      F    correct potential (dipole corrections)
   IDIPOL =      0    1-x, 2-y, 3-z, 4-all directions 
   EPSILON=  1.0000000 bulk dielectric constant

 LDA+U is selected, type is set to LDAUTYPE =  2
   angular momentum for each species LDAUL =    -1   -1    2
   U (eV)           for each species LDAUU =   0.0  0.0  4.4
   J (eV)           for each species LDAUJ =   0.0  0.0  0.0
 Exchange correlation treatment:
   GGA     =    --    GGA type
   LEXCH   =     8    internal setting for exchange type
   VOSKOWN=      0    Vosko Wilk Nusair interpolation
   LHFCALC =     F    Hartree Fock is set to
   LHFONE  =     F    Hartree Fock one center treatment
   AEXX    =    0.0000 exact exchange contribution

 Linear response parameters
   LEPSILON=     F    determine dielectric tensor
   LRPA    =     F    only Hartree local field effects (RPA)
   LNABLA  =     F    use nabla operator in PAW spheres
   LVEL    =     F    velocity operator in full k-point grid
   LINTERFAST=   F  fast interpolation
   KINTER  =     0    interpolate to denser k-point grid
   CSHIFT  =0.1000    complex shift for real part using Kramers Kronig
   OMEGAMAX=  -1.0    maximum frequency
   DEG_THRESHOLD= 0.2000000E-02 threshold for treating states as degnerate
   RTIME   =    0.100 relaxation time in fs

 Orbital magnetization related:
   ORBITALMAG=     F  switch on orbital magnetization
   LCHIMAG   =     F  perturbation theory with respect to B field
   DQ        =  0.001000  dq finite difference perturbation B field



--------------------------------------------------------------------------------------------------------


 Static calculation
 charge density and potential will be updated during run
 non-spin polarized calculation
 Variant of blocked Davidson
 Davidson routine will perform the subspace rotation
 perform sub-space diagonalisation
    after iterative eigenvector-optimisation
 modified Broyden-mixing scheme, WC =      100.0
 initial mixing is a Kerker type mixing with AMIX =  0.1000 and BMIX =      1.2000
 Hartree-type preconditioning will be used
 using additional bands            8
 reciprocal scheme for non local part
 use partial core corrections
 calculate Harris-corrections to forces 
   (improved forces if not selfconsistent)
 use gradient corrections 
 use of overlap-Matrix (Vanderbilt PP)
 Gauss-broadening in eV      SIGMA  =   0.05


--------------------------------------------------------------------------------------------------------


  energy-cutoff  :      520.00
  volume of cell :       65.10
      direct lattice vectors                 reciprocal lattice vectors
     3.988245693  0.000000000  0.000000000     0.250736809  0.000000000  0.000000000
     0.000000000  3.988245693  0.000000000     0.000000000  0.250736809  0.000000000
     0.000000000  0.000000000  4.092744452     0.000000000  0.000000000  0.244334825

  length of vectors
     3.988245693  3.988245693  4.092744452     0.250736809  0.250736809  0.244334825


 
 k-points in units of 2pi/SCALE and weight: K-Mesh                                  
   0.00000000  0.00000000  0.00000000       0.000
   0.01928745  0.00000000  0.00000000       0.002
   0.03857489  0.00000000  0.00000000       0.002
   0.05786234  0.00000000  0.00000000       0.002
   0.07714979  0.00000000  0.00000000       0.002
   0.09643723  0.00000000  0.00000000       0.002
   0.11572468  0.00000000  0.00000000       0.002
   0.01928745  0.01928745  0.00000000       0.002
   0.03857489  0.01928745  0.00000000       0.004
   0.05786234  0.01928745  0.00000000       0.004
   0.07714979  0.01928745  0.00000000       0.004
   0.09643723  0.01928745  0.00000000       0.004
   0.11572468  0.01928745  0.00000000       0.004
   0.03857489  0.03857489  0.00000000       0.002
   0.05786234  0.03857489  0.00000000       0.004
   0.07714979  0.03857489  0.00000000       0.004
   0.09643723  0.03857489  0.00000000       0.004
   0.11572468  0.03857489  0.00000000       0.004
   0.05786234  0.05786234  0.00000000       0.002
   0.07714979  0.05786234  0.00000000       0.004
   0.09643723  0.05786234  0.00000000       0.004
   0.11572468  0.05786234  0.00000000       0.004
   0.07714979  0.07714979  0.00000000       0.002
   0.09643723  0.07714979  0.00000000       0.004
   0.11572468  0.07714979  0.00000000       0.004
   0.09643723  0.09643723  0.00000000       0.002
   0.11572468  0.09643723  0.00000000       0.004
   0.11572468  0.11572468  0.00000000       0.002
   0.00000000  0.00000000  0.02036124       0.001
   0.01928745  0.00000000  0.02036124       0.004
   0.03857489  0.00000000  0.02036124       0.004
   0.05786234  0.00000000  0.02036124       0.004
   0.07714979  0.00000000  0.02036124       0.004
   0.09643723  0.00000000  0.02036124       0.004
   0.11572468  0.00000000  0.02036124       0.004
   0.01928745  0.01928745  0.02036124       0.004
   0.03857489  0.01928745  0.02036124       0.008
   0.05786234  0.01928745  0.02036124       0.008
   0.07714979  0.01928745  0.02036124       0.008
   0.09643723  0.01928745  0.02036124       0.008
   0.11572468  0.01928745  0.02036124       0.008
   0.03857489  0.03857489  0.02036124       0.004
   0.05786234  0.03857489  0.02036124       0.008
   0.07714979  0.03857489  0.02036124       0.008
   0.09643723  0.03857489  0.02036124       0.008
   0.11572468  0.03857489  0.02036124       0.008
   0.05786234  0.05786234  0.02036124       0.004
   0.07714979  0.05786234  0.02036124       0.008
   0.09643723  0.05786234  0.02036124       0.008
   0.11572468  0.05786234  0.02036124       0.008
   0.07714979  0.07714979  0.02036124       0.004
   0.09643723  0.07714979  0.02036124       0.008
   0.11572468  0.07714979  0.02036124       0.008
   0.09643723  0.09643723  0.02036124       0.004
   0.11572468  0.09643723  0.02036124       0.008
   0.11572468  0.11572468  0.02036124       0.004
   0.00000000  0.00000000  0.04072247       0.001
   0.01928745  0.00000000  0.04072247       0.004
   0.03857489  0.00000000  0.04072247       0.004
   0.05786234  0.00000000  0.04072247       0.004
   0.07714979  0.00000000  0.04072247       0.004
   0.09643723  0.00000000  0.04072247       0.004
   0.11572468  0.00000000  0.04072247       0.004
   0.01928745  0.01928745  0.04072247       0.004
   0.03857489  0.01928745  0.04072247       0.008
   0.05786234  0.01928745  0.04072247       0.008
   0.07714979  0.01928745  0.04072247       0.008
   0.09643723  0.01928745  0.04072247       0.008
   0.11572468  0.01928745  0.04072247       0.008
   0.03857489  0.03857489  0.04072247       0.004
   0.05786234  0.03857489  0.04072247       0.008
   0.07714979  0.03857489  0.04072247       0.008
   0.09643723  0.03857489  0.04072247       0.008
   0.11572468  0.03857489  0.04072247       0.008
   0.05786234  0.05786234  0.04072247       0.004
   0.07714979  0.05786234  0.04072247       0.008
   0.09643723  0.05786234  0.04072247       0.008
   0.11572468  0.05786234  0.04072247       0.008
   0.07714979  0.07714979  0.04072247       0.004
   0.09643723  0.07714979  0.04072247       0.008
   0.11572468  0.07714979  0.04072247       0.008
   0.09643723  0.09643723  0.04072247       0.004
   0.11572468  0.09643723  0.04072247       0.008
   0.11572468  0.11572468  0.04072247       0.004
   0.00000000  0.00000000  0.06108371       0.001
   0.01928745  0.00000000  0.06108371       0.004
   0.03857489  0.00000000  0.06108371       0.004
   0.05786234  0.00000000  0.06108371       0.004
   0.07714979  0.00000000  0.06108371       0.004
   0.09643723  0.00000000  0.06108371       0.004
   0.11572468  0.00000000  0.06108371       0.004
   0.01928745  0.01928745  0.06108371       0.004
   0.03857489  0.01928745  0.06108371       0.008
   0.05786234  0.01928745  0.06108371       0.008
   0.07714979  0.01928745  0.06108371       0.008
   0.09643723  0.01928745  0.06108371       0.008
   0.11572468  0.01928745  0.06108371       0.008
   0.03857489  0.03857489  0.06108371       0.004
   0.05786234  0.03857489  0.06108371       0.008
   0.07714979  0.03857489  0.06108371       0.008
   0.09643723  0.03857489  0.06108371       0.008
   0.11572468  0.03857489  0.06108371       0.008
   0.05786234  0.05786234  0.06108371       0.004
   0.07714979  0.05786234  0.06108371       0.008
   0.09643723  0.05786234  0.06108371       0.008
   0.11572468  0.05786234  0.06108371       0.008
   0.07714979  0.07714979  0.06108371       0.004
   0.09643723  0.07714979  0.06108371       0.008
   0.11572468  0.07714979  0.06108371       0.008
   0.09643723  0.09643723  0.06108371       0.004
   0.11572468  0.09643723  0.06108371       0.008
   0.11572468  0.11572468  0.06108371       0.004
   0.00000000  0.00000000  0.08144494       0.001
   0.01928745  0.00000000  0.08144494       0.004
   0.03857489  0.00000000  0.08144494       0.004
   0.05786234  0.00000000  0.08144494       0.004
   0.07714979  0.00000000  0.08144494       0.004
   0.09643723  0.00000000  0.08144494       0.004
   0.11572468  0.00000000  0.08144494       0.004
   0.01928745  0.01928745  0.08144494       0.004
   0.03857489  0.01928745  0.08144494       0.008
   0.05786234  0.01928745  0.08144494       0.008
   0.07714979  0.01928745  0.08144494       0.008
   0.09643723  0.01928745  0.08144494       0.008
   0.11572468  0.01928745  0.08144494       0.008
   0.03857489  0.03857489  0.08144494       0.004
   0.05786234  0.03857489  0.08144494       0.008
   0.07714979  0.03857489  0.08144494       0.008
   0.09643723  0.03857489  0.08144494       0.008
   0.11572468  0.03857489  0.08144494       0.008
   0.05786234  0.05786234  0.08144494       0.004
   0.07714979  0.05786234  0.08144494       0.008
   0.09643723  0.05786234  0.08144494       0.008
   0.11572468  0.05786234  0.08144494       0.008
   0.07714979  0.07714979  0.08144494       0.004
   0.09643723  0.07714979  0.08144494       0.008
   0.11572468  0.07714979  0.08144494       0.008
   0.09643723  0.09643723  0.08144494       0.004
   0.11572468  0.09643723  0.08144494       0.008
   0.11572468  0.11572468  0.08144494       0.004
   0.00000000  0.00000000  0.10180618       0.001
   0.01928745  0.00000000  0.10180618       0.004
   0.03857489  0.00000000  0.10180618       0.004
   0.05786234  0.00000000  0.10180618       0.004
   0.07714979  0.00000000  0.10180618       0.004
   0.09643723  0.00000000  0.10180618       0.004
   0.11572468  0.00000000  0.10180618       0.004
   0.01928745  0.01928745  0.10180618       0.004
   0.03857489  0.01928745  0.10180618       0.008
   0.05786234  0.01928745  0.10180618       0.008
   0.07714979  0.01928745  0.10180618       0.008
   0.09643723  0.01928745  0.10180618       0.008
   0.11572468  0.01928745  0.10180618       0.008
   0.03857489  0.03857489  0.10180618       0.004
   0.05786234  0.03857489  0.10180618       0.008
   0.07714979  0.03857489  0.10180618       0.008
   0.09643723  0.03857489  0.10180618       0.008
   0.11572468  0.03857489  0.10180618       0.008
   0.05786234  0.05786234  0.10180618       0.004
   0.07714979  0.05786234  0.10180618       0.008
   0.09643723  0.05786234  0.10180618       0.008
   0.11572468  0.05786234  0.10180618       0.008
   0.07714979  0.07714979  0.10180618       0.004
   0.09643723  0.07714979  0.10180618       0.008
   0.11572468  0.07714979  0.10180618       0.008
   0.09643723  0.09643723  0.10180618       0.004
   0.11572468  0.09643723  0.10180618       0.008
   0.11572468  0.11572468  0.10180618       0.004
   0.00000000  0.00000000  0.12216741       0.000
   0.01928745  0.00000000  0.12216741       0.002
   0.03857489  0.00000000  0.12216741       0.002
   0.05786234  0.00000000  0.12216741       0.002
   0.07714979  0.00000000  0.12216741       0.002
   0.09643723  0.00000000  0.12216741       0.002
   0.11572468  0.00000000  0.12216741       0.002
   0.01928745  0.01928745  0.12216741       0.002
   0.03857489  0.01928745  0.12216741       0.004
   0.05786234  0.01928745  0.12216741       0.004
   0.07714979  0.01928745  0.12216741       0.004
   0.09643723  0.01928745  0.12216741       0.004
   0.11572468  0.01928745  0.12216741       0.004
   0.03857489  0.03857489  0.12216741       0.002
   0.05786234  0.03857489  0.12216741       0.004
   0.07714979  0.03857489  0.12216741       0.004
   0.09643723  0.03857489  0.12216741       0.004
   0.11572468  0.03857489  0.12216741       0.004
   0.05786234  0.05786234  0.12216741       0.002
   0.07714979  0.05786234  0.12216741       0.004
   0.09643723  0.05786234  0.12216741       0.004
   0.11572468  0.05786234  0.12216741       0.004
   0.07714979  0.07714979  0.12216741       0.002
   0.09643723  0.07714979  0.12216741       0.004
   0.11572468  0.07714979  0.12216741       0.004
   0.09643723  0.09643723  0.12216741       0.002
   0.11572468  0.09643723  0.12216741       0.004
   0.11572468  0.11572468  0.12216741       0.002
 
 k-points in reciprocal lattice and weights: K-Mesh                                  
   0.00000000  0.00000000  0.00000000       0.000
   0.07692308  0.00000000  0.00000000       0.002
   0.15384615  0.00000000  0.00000000       0.002
   0.23076923  0.00000000  0.00000000       0.002
   0.30769231  0.00000000  0.00000000       0.002
   0.38461538  0.00000000  0.00000000       0.002
   0.46153846  0.00000000  0.00000000       0.002
   0.07692308  0.07692308  0.00000000       0.002
   0.15384615  0.07692308  0.00000000       0.004
   0.23076923  0.07692308  0.00000000       0.004
   0.30769231  0.07692308  0.00000000       0.004
   0.38461538  0.07692308  0.00000000       0.004
   0.46153846  0.07692308  0.00000000       0.004
   0.15384615  0.15384615  0.00000000       0.002
   0.23076923  0.15384615  0.00000000       0.004
   0.30769231  0.15384615  0.00000000       0.004
   0.38461538  0.15384615  0.00000000       0.004
   0.46153846  0.15384615  0.00000000       0.004
   0.23076923  0.23076923  0.00000000       0.002
   0.30769231  0.23076923  0.00000000       0.004
   0.38461538  0.23076923  0.00000000       0.004
   0.46153846  0.23076923  0.00000000       0.004
   0.30769231  0.30769231  0.00000000       0.002
   0.38461538  0.30769231  0.00000000       0.004
   0.46153846  0.30769231  0.00000000       0.004
   0.38461538  0.38461538  0.00000000       0.002
   0.46153846  0.38461538  0.00000000       0.004
   0.46153846  0.46153846  0.00000000       0.002
   0.00000000  0.00000000  0.08333333       0.001
   0.07692308  0.00000000  0.08333333       0.004
   0.15384615  0.00000000  0.08333333       0.004
   0.23076923  0.00000000  0.08333333       0.004
   0.30769231  0.00000000  0.08333333       0.004
   0.38461538  0.00000000  0.08333333       0.004
   0.46153846  0.00000000  0.08333333       0.004
   0.07692308  0.07692308  0.08333333       0.004
   0.15384615  0.07692308  0.08333333       0.008
   0.23076923  0.07692308  0.08333333       0.008
   0.30769231  0.07692308  0.08333333       0.008
   0.38461538  0.07692308  0.08333333       0.008
   0.46153846  0.07692308  0.08333333       0.008
   0.15384615  0.15384615  0.08333333       0.004
   0.23076923  0.15384615  0.08333333       0.008
   0.30769231  0.15384615  0.08333333       0.008
   0.38461538  0.15384615  0.08333333       0.008
   0.46153846  0.15384615  0.08333333       0.008
   0.23076923  0.23076923  0.08333333       0.004
   0.30769231  0.23076923  0.08333333       0.008
   0.38461538  0.23076923  0.08333333       0.008
   0.46153846  0.23076923  0.08333333       0.008
   0.30769231  0.30769231  0.08333333       0.004
   0.38461538  0.30769231  0.08333333       0.008
   0.46153846  0.30769231  0.08333333       0.008
   0.38461538  0.38461538  0.08333333       0.004
   0.46153846  0.38461538  0.08333333       0.008
   0.46153846  0.46153846  0.08333333       0.004
   0.00000000  0.00000000  0.16666667       0.001
   0.07692308  0.00000000  0.16666667       0.004
   0.15384615  0.00000000  0.16666667       0.004
   0.23076923  0.00000000  0.16666667       0.004
   0.30769231  0.00000000  0.16666667       0.004
   0.38461538  0.00000000  0.16666667       0.004
   0.46153846  0.00000000  0.16666667       0.004
   0.07692308  0.07692308  0.16666667       0.004
   0.15384615  0.07692308  0.16666667       0.008
   0.23076923  0.07692308  0.16666667       0.008
   0.30769231  0.07692308  0.16666667       0.008
   0.38461538  0.07692308  0.16666667       0.008
   0.46153846  0.07692308  0.16666667       0.008
   0.15384615  0.15384615  0.16666667       0.004
   0.23076923  0.15384615  0.16666667       0.008
   0.30769231  0.15384615  0.16666667       0.008
   0.38461538  0.15384615  0.16666667       0.008
   0.46153846  0.15384615  0.16666667       0.008
   0.23076923  0.23076923  0.16666667       0.004
   0.30769231  0.23076923  0.16666667       0.008
   0.38461538  0.23076923  0.16666667       0.008
   0.46153846  0.23076923  0.16666667       0.008
   0.30769231  0.30769231  0.16666667       0.004
   0.38461538  0.30769231  0.16666667       0.008
   0.46153846  0.30769231  0.16666667       0.008
   0.38461538  0.38461538  0.16666667       0.004
   0.46153846  0.38461538  0.16666667       0.008
   0.46153846  0.46153846  0.16666667       0.004
   0.00000000  0.00000000  0.25000000       0.001
   0.07692308  0.00000000  0.25000000       0.004
   0.15384615  0.00000000  0.25000000       0.004
   0.23076923  0.00000000  0.25000000       0.004
   0.30769231  0.00000000  0.25000000       0.004
   0.38461538  0.00000000  0.25000000       0.004
   0.46153846  0.00000000  0.25000000       0.004
   0.07692308  0.07692308  0.25000000       0.004
   0.15384615  0.07692308  0.25000000       0.008
   0.23076923  0.07692308  0.25000000       0.008
   0.30769231  0.07692308  0.25000000       0.008
   0.38461538  0.07692308  0.25000000       0.008
   0.46153846  0.07692308  0.25000000       0.008
   0.15384615  0.15384615  0.25000000       0.004
   0.23076923  0.15384615  0.25000000       0.008
   0.30769231  0.15384615  0.25000000       0.008
   0.38461538  0.15384615  0.25000000       0.008
   0.46153846  0.15384615  0.25000000       0.008
   0.23076923  0.23076923  0.25000000       0.004
   0.30769231  0.23076923  0.25000000       0.008
   0.38461538  0.23076923  0.25000000       0.008
   0.46153846  0.23076923  0.25000000       0.008
   0.30769231  0.30769231  0.25000000       0.004
   0.38461538  0.30769231  0.25000000       0.008
   0.46153846  0.30769231  0.25000000       0.008
   0.38461538  0.38461538  0.25000000       0.004
   0.46153846  0.38461538  0.25000000       0.008
   0.46153846  0.46153846  0.25000000       0.004
   0.00000000  0.00000000  0.33333333       0.001
   0.07692308  0.00000000  0.33333333       0.004
   0.15384615  0.00000000  0.33333333       0.004
   0.23076923  0.00000000  0.33333333       0.004
   0.30769231  0.00000000  0.33333333       0.004
   0.38461538  0.00000000  0.33333333       0.004
   0.46153846  0.00000000  0.33333333       0.004
   0.07692308  0.07692308  0.33333333       0.004
   0.15384615  0.07692308  0.33333333       0.008
   0.23076923  0.07692308  0.33333333       0.008
   0.30769231  0.07692308  0.33333333       0.008
   0.38461538  0.07692308  0.33333333       0.008
   0.46153846  0.07692308  0.33333333       0.008
   0.15384615  0.15384615  0.33333333       0.004
   0.23076923  0.15384615  0.33333333       0.008
   0.30769231  0.15384615  0.33333333       0.008
   0.38461538  0.15384615  0.33333333       0.008
   0.46153846  0.15384615  0.33333333       0.008
   0.23076923  0.23076923  0.33333333       0.004
   0.30769231  0.23076923  0.33333333       0.008
   0.38461538  0.23076923  0.33333333       0.008
   0.46153846  0.23076923  0.33333333       0.008
   0.30769231  0.30769231  0.33333333       0.004
   0.38461538  0.30769231  0.33333333       0.008
   0.46153846  0.30769231  0.33333333       0.008
   0.38461538  0.38461538  0.33333333       0.004
   0.46153846  0.38461538  0.33333333       0.008
   0.46153846  0.46153846  0.33333333       0.004
   0.00000000  0.00000000  0.41666667       0.001
   0.07692308  0.00000000  0.41666667       0.004
   0.15384615  0.00000000  0.41666667       0.004
   0.23076923  0.00000000  0.41666667       0.004
   0.30769231  0.00000000  0.41666667       0.004
   0.38461538  0.00000000  0.41666667       0.004
   0.46153846  0.00000000  0.41666667       0.004
   0.07692308  0.07692308  0.41666667       0.004
   0.15384615  0.07692308  0.41666667       0.008
   0.23076923  0.07692308  0.41666667       0.008
   0.30769231  0.07692308  0.41666667       0.008
   0.38461538  0.07692308  0.41666667       0.008
   0.46153846  0.07692308  0.41666667       0.008
   0.15384615  0.15384615  0.41666667       0.004
   0.23076923  0.15384615  0.41666667       0.008
   0.30769231  0.15384615  0.41666667       0.008
   0.38461538  0.15384615  0.41666667       0.008
   0.46153846  0.15384615  0.41666667       0.008
   0.23076923  0.23076923  0.41666667       0.004
   0.30769231  0.23076923  0.41666667       0.008
   0.38461538  0.23076923  0.41666667       0.008
   0.46153846  0.23076923  0.41666667       0.008
   0.30769231  0.30769231  0.41666667       0.004
   0.38461538  0.30769231  0.41666667       0.008
   0.46153846  0.30769231  0.41666667       0.008
   0.38461538  0.38461538  0.41666667       0.004
   0.46153846  0.38461538  0.41666667       0.008
   0.46153846  0.46153846  0.41666667       0.004
   0.00000000  0.00000000  0.50000000       0.000
   0.07692308  0.00000000  0.50000000       0.002
   0.15384615  0.00000000  0.50000000       0.002
   0.23076923  0.00000000  0.50000000       0.002
   0.30769231  0.00000000  0.50000000       0.002
   0.38461538  0.00000000  0.50000000       0.002
   0.46153846  0.00000000  0.50000000       0.002
   0.07692308  0.07692308  0.50000000       0.002
   0.15384615  0.07692308  0.50000000       0.004
   0.23076923  0.07692308  0.50000000       0.004
   0.30769231  0.07692308  0.50000000       0.004
   0.38461538  0.07692308  0.50000000       0.004
   0.46153846  0.07692308  0.50000000       0.004
   0.15384615  0.15384615  0.50000000       0.002
   0.23076923  0.15384615  0.50000000       0.004
   0.30769231  0.15384615  0.50000000       0.004
   0.38461538  0.15384615  0.50000000       0.004
   0.46153846  0.15384615  0.50000000       0.004
   0.23076923  0.23076923  0.50000000       0.002
   0.30769231  0.23076923  0.50000000       0.004
   0.38461538  0.23076923  0.50000000       0.004
   0.46153846  0.23076923  0.50000000       0.004
   0.30769231  0.30769231  0.50000000       0.002
   0.38461538  0.30769231  0.50000000       0.004
   0.46153846  0.30769231  0.50000000       0.004
   0.38461538  0.38461538  0.50000000       0.002
   0.46153846  0.38461538  0.50000000       0.004
   0.46153846  0.46153846  0.50000000       0.002
 
 position of ions in fractional coordinates (direct lattice) 
   0.00000000  0.50000000  0.61192336
   0.50000000  0.00000000  0.61192336
   0.50000000  0.50000000  0.09966403
   0.00000000  0.00000000  0.01627854
   0.50000000  0.50000000  0.55761070
 
 position of ions in cartesian coordinates  (Angst):
   0.00000000  1.99412285  2.50444596
   1.99412285  0.00000000  2.50444596
   1.99412285  1.99412285  0.40789940
   0.00000000  0.00000000  0.06662391
   1.99412285  1.99412285  2.28215810
 


--------------------------------------------------------------------------------------------------------


 k-point  1 :   0.0000 0.0000 0.0000  plane waves:    1767
 k-point  2 :   0.0769 0.0000 0.0000  plane waves:    1775
 k-point  3 :   0.1538 0.0000 0.0000  plane waves:    1775
 k-point  4 :   0.2308 0.0000 0.0000  plane waves:    1761
 k-point  5 :   0.3077 0.0000 0.0000  plane waves:    1759
 k-point  6 :   0.3846 0.0000 0.0000  plane waves:    1755
 k-point  7 :   0.4615 0.0000 0.0000  plane waves:    1748
 k-point  8 :   0.0769 0.0769 0.0000  plane waves:    1769
 k-point  9 :   0.1538 0.0769 0.0000  plane waves:    1762
 k-point 10 :   0.2308 0.0769 0.0000  plane waves:    1754
 k-point 11 :   0.3077 0.0769 0.0000  plane waves:    1763
 k-point 12 :   0.3846 0.0769 0.0000  plane waves:    1752
 k-point 13 :   0.4615 0.0769 0.0000  plane waves:    1753
 k-point 14 :   0.1538 0.1538 0.0000  plane waves:    1755
 k-point 15 :   0.2308 0.1538 0.0000  plane waves:    1760
 k-point 16 :   0.3077 0.1538 0.0000  plane waves:    1749
 k-point 17 :   0.3846 0.1538 0.0000  plane waves:    1759
 k-point 18 :   0.4615 0.1538 0.0000  plane waves:    1758
 k-point 19 :   0.2308 0.2308 0.0000  plane waves:    1763
 k-point 20 :   0.3077 0.2308 0.0000  plane waves:    1758
 k-point 21 :   0.3846 0.2308 0.0000  plane waves:    1754
 k-point 22 :   0.4615 0.2308 0.0000  plane waves:    1764
 k-point 23 :   0.3077 0.3077 0.0000  plane waves:    1754
 k-point 24 :   0.3846 0.3077 0.0000  plane waves:    1746
 k-point 25 :   0.4615 0.3077 0.0000  plane waves:    1754
 k-point 26 :   0.3846 0.3846 0.0000  plane waves:    1746
 k-point 27 :   0.4615 0.3846 0.0000  plane waves:    1743
 k-point 28 :   0.4615 0.4615 0.0000  plane waves:    1738
 k-point 29 :   0.0000 0.0000 0.0833  plane waves:    1771
 k-point 30 :   0.0769 0.0000 0.0833  plane waves:    1779
 k-point 31 :   0.1538 0.0000 0.0833  plane waves:    1768
 k-point 32 :   0.2308 0.0000 0.0833  plane waves:    1768
 k-point 33 :   0.3077 0.0000 0.0833  plane waves:    1760
 k-point 34 :   0.3846 0.0000 0.0833  plane waves:    1751
 k-point 35 :   0.4615 0.0000 0.0833  plane waves:    1757
 k-point 36 :   0.0769 0.0769 0.0833  plane waves:    1768
 k-point 37 :   0.1538 0.0769 0.0833  plane waves:    1770
 k-point 38 :   0.2308 0.0769 0.0833  plane waves:    1760
 k-point 39 :   0.3077 0.0769 0.0833  plane waves:    1758
 k-point 40 :   0.3846 0.0769 0.0833  plane waves:    1755
 k-point 41 :   0.4615 0.0769 0.0833  plane waves:    1752
 k-point 42 :   0.1538 0.1538 0.0833  plane waves:    1755
 k-point 43 :   0.2308 0.1538 0.0833  plane waves:    1755
 k-point 44 :   0.3077 0.1538 0.0833  plane waves:    1751
 k-point 45 :   0.3846 0.1538 0.0833  plane waves:    1754
 k-point 46 :   0.4615 0.1538 0.0833  plane waves:    1757
 k-point 47 :   0.2308 0.2308 0.0833  plane waves:    1758
 k-point 48 :   0.3077 0.2308 0.0833  plane waves:    1754
 k-point 49 :   0.3846 0.2308 0.0833  plane waves:    1747
 k-point 50 :   0.4615 0.2308 0.0833  plane waves:    1753
 k-point 51 :   0.3077 0.3077 0.0833  plane waves:    1752
 k-point 52 :   0.3846 0.3077 0.0833  plane waves:    1750
 k-point 53 :   0.4615 0.3077 0.0833  plane waves:    1748
 k-point 54 :   0.3846 0.3846 0.0833  plane waves:    1752
 k-point 55 :   0.4615 0.3846 0.0833  plane waves:    1748
 k-point 56 :   0.4615 0.4615 0.0833  plane waves:    1741
 k-point 57 :   0.0000 0.0000 0.1667  plane waves:    1787
 k-point 58 :   0.0769 0.0000 0.1667  plane waves:    1775
 k-point 59 :   0.1538 0.0000 0.1667  plane waves:    1767
 k-point 60 :   0.2308 0.0000 0.1667  plane waves:    1761
 k-point 61 :   0.3077 0.0000 0.1667  plane waves:    1759
 k-point 62 :   0.3846 0.0000 0.1667  plane waves:    1752
 k-point 63 :   0.4615 0.0000 0.1667  plane waves:    1751
 k-point 64 :   0.0769 0.0769 0.1667  plane waves:    1772
 k-point 65 :   0.1538 0.0769 0.1667  plane waves:    1764
 k-point 66 :   0.2308 0.0769 0.1667  plane waves:    1762
 k-point 67 :   0.3077 0.0769 0.1667  plane waves:    1759
 k-point 68 :   0.3846 0.0769 0.1667  plane waves:    1757
 k-point 69 :   0.4615 0.0769 0.1667  plane waves:    1752
 k-point 70 :   0.1538 0.1538 0.1667  plane waves:    1755
 k-point 71 :   0.2308 0.1538 0.1667  plane waves:    1762
 k-point 72 :   0.3077 0.1538 0.1667  plane waves:    1759
 k-point 73 :   0.3846 0.1538 0.1667  plane waves:    1753
 k-point 74 :   0.4615 0.1538 0.1667  plane waves:    1757
 k-point 75 :   0.2308 0.2308 0.1667  plane waves:    1755
 k-point 76 :   0.3077 0.2308 0.1667  plane waves:    1753
 k-point 77 :   0.3846 0.2308 0.1667  plane waves:    1747
 k-point 78 :   0.4615 0.2308 0.1667  plane waves:    1744
 k-point 79 :   0.3077 0.3077 0.1667  plane waves:    1753
 k-point 80 :   0.3846 0.3077 0.1667  plane waves:    1748
 k-point 81 :   0.4615 0.3077 0.1667  plane waves:    1748
 k-point 82 :   0.3846 0.3846 0.1667  plane waves:    1748
 k-point 83 :   0.4615 0.3846 0.1667  plane waves:    1744
 k-point 84 :   0.4615 0.4615 0.1667  plane waves:    1737
 k-point 85 :   0.0000 0.0000 0.2500  plane waves:    1775
 k-point 86 :   0.0769 0.0000 0.2500  plane waves:    1773
 k-point 87 :   0.1538 0.0000 0.2500  plane waves:    1757
 k-point 88 :   0.2308 0.0000 0.2500  plane waves:    1760
 k-point 89 :   0.3077 0.0000 0.2500  plane waves:    1766
 k-point 90 :   0.3846 0.0000 0.2500  plane waves:    1753
 k-point 91 :   0.4615 0.0000 0.2500  plane waves:    1740
 k-point 92 :   0.0769 0.0769 0.2500  plane waves:    1765
 k-point 93 :   0.1538 0.0769 0.2500  plane waves:    1759
 k-point 94 :   0.2308 0.0769 0.2500  plane waves:    1759
 k-point 95 :   0.3077 0.0769 0.2500  plane waves:    1758
 k-point 96 :   0.3846 0.0769 0.2500  plane waves:    1755
 k-point 97 :   0.4615 0.0769 0.2500  plane waves:    1748
 k-point 98 :   0.1538 0.1538 0.2500  plane waves:    1756
 k-point 99 :   0.2308 0.1538 0.2500  plane waves:    1760
 k-point ** :   0.3077 0.1538 0.2500  plane waves:    1758
 k-point ** :   0.3846 0.1538 0.2500  plane waves:    1750
 k-point ** :   0.4615 0.1538 0.2500  plane waves:    1751
 k-point ** :   0.2308 0.2308 0.2500  plane waves:    1759
 k-point ** :   0.3077 0.2308 0.2500  plane waves:    1753
 k-point ** :   0.3846 0.2308 0.2500  plane waves:    1748
 k-point ** :   0.4615 0.2308 0.2500  plane waves:    1747
 k-point ** :   0.3077 0.3077 0.2500  plane waves:    1753
 k-point ** :   0.3846 0.3077 0.2500  plane waves:    1746
 k-point ** :   0.4615 0.3077 0.2500  plane waves:    1745
 k-point ** :   0.3846 0.3846 0.2500  plane waves:    1742
 k-point ** :   0.4615 0.3846 0.2500  plane waves:    1746
 k-point ** :   0.4615 0.4615 0.2500  plane waves:    1738
 k-point ** :   0.0000 0.0000 0.3333  plane waves:    1751
 k-point ** :   0.0769 0.0000 0.3333  plane waves:    1755
 k-point ** :   0.1538 0.0000 0.3333  plane waves:    1756
 k-point ** :   0.2308 0.0000 0.3333  plane waves:    1756
 k-point ** :   0.3077 0.0000 0.3333  plane waves:    1757
 k-point ** :   0.3846 0.0000 0.3333  plane waves:    1746
 k-point ** :   0.4615 0.0000 0.3333  plane waves:    1739
 k-point ** :   0.0769 0.0769 0.3333  plane waves:    1758
 k-point ** :   0.1538 0.0769 0.3333  plane waves:    1763
 k-point ** :   0.2308 0.0769 0.3333  plane waves:    1754
 k-point ** :   0.3077 0.0769 0.3333  plane waves:    1750
 k-point ** :   0.3846 0.0769 0.3333  plane waves:    1747
 k-point ** :   0.4615 0.0769 0.3333  plane waves:    1744
 k-point ** :   0.1538 0.1538 0.3333  plane waves:    1752
 k-point ** :   0.2308 0.1538 0.3333  plane waves:    1753
 k-point ** :   0.3077 0.1538 0.3333  plane waves:    1753
 k-point ** :   0.3846 0.1538 0.3333  plane waves:    1749
 k-point ** :   0.4615 0.1538 0.3333  plane waves:    1746
 k-point ** :   0.2308 0.2308 0.3333  plane waves:    1756
 k-point ** :   0.3077 0.2308 0.3333  plane waves:    1749
 k-point ** :   0.3846 0.2308 0.3333  plane waves:    1752
 k-point ** :   0.4615 0.2308 0.3333  plane waves:    1754
 k-point ** :   0.3077 0.3077 0.3333  plane waves:    1749
 k-point ** :   0.3846 0.3077 0.3333  plane waves:    1746
 k-point ** :   0.4615 0.3077 0.3333  plane waves:    1748
 k-point ** :   0.3846 0.3846 0.3333  plane waves:    1744
 k-point ** :   0.4615 0.3846 0.3333  plane waves:    1752
 k-point ** :   0.4615 0.4615 0.3333  plane waves:    1752
 k-point ** :   0.0000 0.0000 0.4167  plane waves:    1760
 k-point ** :   0.0769 0.0000 0.4167  plane waves:    1757
 k-point ** :   0.1538 0.0000 0.4167  plane waves:    1754
 k-point ** :   0.2308 0.0000 0.4167  plane waves:    1749
 k-point ** :   0.3077 0.0000 0.4167  plane waves:    1742
 k-point ** :   0.3846 0.0000 0.4167  plane waves:    1739
 k-point ** :   0.4615 0.0000 0.4167  plane waves:    1738
 k-point ** :   0.0769 0.0769 0.4167  plane waves:    1764
 k-point ** :   0.1538 0.0769 0.4167  plane waves:    1759
 k-point ** :   0.2308 0.0769 0.4167  plane waves:    1747
 k-point ** :   0.3077 0.0769 0.4167  plane waves:    1742
 k-point ** :   0.3846 0.0769 0.4167  plane waves:    1739
 k-point ** :   0.4615 0.0769 0.4167  plane waves:    1738
 k-point ** :   0.1538 0.1538 0.4167  plane waves:    1758
 k-point ** :   0.2308 0.1538 0.4167  plane waves:    1753
 k-point ** :   0.3077 0.1538 0.4167  plane waves:    1751
 k-point ** :   0.3846 0.1538 0.4167  plane waves:    1746
 k-point ** :   0.4615 0.1538 0.4167  plane waves:    1742
 k-point ** :   0.2308 0.2308 0.4167  plane waves:    1752
 k-point ** :   0.3077 0.2308 0.4167  plane waves:    1747
 k-point ** :   0.3846 0.2308 0.4167  plane waves:    1752
 k-point ** :   0.4615 0.2308 0.4167  plane waves:    1757
 k-point ** :   0.3077 0.3077 0.4167  plane waves:    1746
 k-point ** :   0.3846 0.3077 0.4167  plane waves:    1756
 k-point ** :   0.4615 0.3077 0.4167  plane waves:    1755
 k-point ** :   0.3846 0.3846 0.4167  plane waves:    1752
 k-point ** :   0.4615 0.3846 0.4167  plane waves:    1750
 k-point ** :   0.4615 0.4615 0.4167  plane waves:    1754
 k-point ** :   0.0000 0.0000 0.5000  plane waves:    1760
 k-point ** :   0.0769 0.0000 0.5000  plane waves:    1764
 k-point ** :   0.1538 0.0000 0.5000  plane waves:    1764
 k-point ** :   0.2308 0.0000 0.5000  plane waves:    1740
 k-point ** :   0.3077 0.0000 0.5000  plane waves:    1740
 k-point ** :   0.3846 0.0000 0.5000  plane waves:    1736
 k-point ** :   0.4615 0.0000 0.5000  plane waves:    1724
 k-point ** :   0.0769 0.0769 0.5000  plane waves:    1762
 k-point ** :   0.1538 0.0769 0.5000  plane waves:    1762
 k-point ** :   0.2308 0.0769 0.5000  plane waves:    1746
 k-point ** :   0.3077 0.0769 0.5000  plane waves:    1744
 k-point ** :   0.3846 0.0769 0.5000  plane waves:    1738
 k-point ** :   0.4615 0.0769 0.5000  plane waves:    1738
 k-point ** :   0.1538 0.1538 0.5000  plane waves:    1762
 k-point ** :   0.2308 0.1538 0.5000  plane waves:    1756
 k-point ** :   0.3077 0.1538 0.5000  plane waves:    1746
 k-point ** :   0.3846 0.1538 0.5000  plane waves:    1742
 k-point ** :   0.4615 0.1538 0.5000  plane waves:    1740
 k-point ** :   0.2308 0.2308 0.5000  plane waves:    1748
 k-point ** :   0.3077 0.2308 0.5000  plane waves:    1746
 k-point ** :   0.3846 0.2308 0.5000  plane waves:    1756
 k-point ** :   0.4615 0.2308 0.5000  plane waves:    1764
 k-point ** :   0.3077 0.3077 0.5000  plane waves:    1756
 k-point ** :   0.3846 0.3077 0.5000  plane waves:    1752
 k-point ** :   0.4615 0.3077 0.5000  plane waves:    1760
 k-point ** :   0.3846 0.3846 0.5000  plane waves:    1752
 k-point ** :   0.4615 0.3846 0.5000  plane waves:    1754
 k-point ** :   0.4615 0.4615 0.5000  plane waves:    1752

 maximum and minimum number of plane-waves per node :       459      422

 maximum number of plane-waves:      1787
 maximum index in each direction: 
   IXMAX=    7   IYMAX=    7   IZMAX=    7
   IXMIN=   -7   IYMIN=   -7   IZMIN=   -8

 NGX is ok and might be reduce to  30
 NGY is ok and might be reduce to  30
 WARNING: aliasing errors must be expected set NGZ to  32 to avoid them
 aliasing errors are usually negligible using standard VASP settings
 and one can safely disregard these warnings

 parallel 3D FFT for wavefunctions:
    minimum data exchange during FFTs selected (reduces bandwidth)
 parallel 3D FFT for charge:
    minimum data exchange during FFTs selected (reduces bandwidth)


 total amount of memory used by VASP on root node    78280. kBytes
========================================================================

   base      :      30000. kBytes
   nonl-proj :      38138. kBytes
   fftplans  :       1585. kBytes
   grid      :       1000. kBytes
   one-center:         31. kBytes
   wavefun   :       7526. kBytes
 
     INWAV:  cpu time    0.0000: real time    0.0008
 Broyden mixing: mesh for mixing (old mesh)
   NGX = 15   NGY = 15   NGZ = 15
  (NGX  = 60   NGY  = 60   NGZ  = 60)
  gives a total of   3375 points

 initial charge density was supplied:
 charge density of overlapping atoms calculated
 number of electron      44.0000000 magnetization 
 keeping initial charge density in first step


--------------------------------------------------------------------------------------------------------


 Maximum index for augmentation-charges         7545 (set IRDMAX)


--------------------------------------------------------------------------------------------------------


 First call to EWALD:  gamma=   0.441
 Maximum number of real-space cells 3x 3x 3
 Maximum number of reciprocal cells 3x 3x 3

 FEWALD executed in parallel
    FEWALD:  cpu time    0.0020: real time    0.0023


----------------------------------------- Iteration    1(   1)  ---------------------------------------


    POTLOK:  cpu time    0.0100: real time    0.0096
    SETDIJ:  cpu time    0.0220: real time    0.0233
     EDDAV:  cpu time    2.4876: real time    2.4996
       DOS:  cpu time    0.0040: real time    0.0040
    --------------------------------------------
      LOOP:  cpu time    2.5286: real time    2.5469

 eigenvalue-minimisations  : 11772
 total energy-change (2. order) : 0.5207694E+03  (-0.2306237E+04)
 number of electron      44.0000000 magnetization 
 augmentation part       44.0000000 magnetization 

 Free energy of the ion-electron system (eV)
  ---------------------------------------------------
  alpha Z        PSCENC =       182.16502373
  Ewald energy   TEWEN  =     -3560.79656758
  -Hartree energ DENC   =     -1043.06691172
  -exchange      EXHF   =         0.00000000
  -V(xc)+E(xc)   XCENC  =       182.85076776
  PAW double counting   =      3739.62393956    -3707.69817712
  entropy T*S    EENTRO =        -0.00189008
  eigenvalues    EBANDS =       180.91947293
  atomic energy  EATOM  =      4546.77371827
  Solvation  Ediel_sol  =         0.00000000
  ---------------------------------------------------
  free energy    TOTEN  =       520.76937575 eV

  energy without entropy =      520.77126583  energy(sigma->0) =      520.77032079


--------------------------------------------------------------------------------------------------------




----------------------------------------- Iteration    1(   2)  ---------------------------------------


     EDDAV:  cpu time    2.5416: real time    2.5465
       DOS:  cpu time    0.0020: real time    0.0025
    --------------------------------------------
      LOOP:  cpu time    2.5456: real time    2.5650

 eigenvalue-minimisations  : 12342
 total energy-change (2. order) :-0.5024618E+03  (-0.4767602E+03)
 number of electron      44.0000000 magnetization 
 augmentation part       44.0000000 magnetization 

 Free energy of the ion-electron system (eV)
  ---------------------------------------------------
  alpha Z        PSCENC =       182.16502373
  Ewald energy   TEWEN  =     -3560.79656758
  -Hartree energ DENC   =     -1043.06691172
  -exchange      EXHF   =         0.00000000
  -V(xc)+E(xc)   XCENC  =       182.85076776
  PAW double counting   =      3739.62393956    -3707.69817712
  entropy T*S    EENTRO =        -0.00005030
  eigenvalues    EBANDS =      -321.54418536
  atomic energy  EATOM  =      4546.77371827
  Solvation  Ediel_sol  =         0.00000000
[...]
     14       1.1577      2.00000
     15       1.7568      2.00000
     16       1.8384      2.00000
     17       2.1118      2.00000
     18       3.1016      2.00000
     19       4.0296      2.00000
     20       4.2807      2.00000
     21       4.3703      2.00000
     22       5.4125      2.00000
     23       9.3476      0.00000
     24       9.4240      0.00000
     25       9.7693      0.00000
     26      10.8125      0.00000
     27      11.0830      0.00000
     28      11.3224      0.00000
     29      11.6542      0.00000
     30      12.6764      0.00000

 k-point   187 :       0.2308    0.2308    0.5000
  band No.  band energies     occupation 
      1     -52.3630      2.00000
      2     -28.5600      2.00000
      3     -28.5404      2.00000
      4     -28.5403      2.00000
      5     -11.3458      2.00000
      6     -10.9473      2.00000
      7     -10.6415      2.00000
      8      -9.6779      2.00000
      9      -9.6536      2.00000
     10      -9.5760      2.00000
     11      -9.5017      2.00000
     12      -9.4215      2.00000
     13      -1.3312      2.00000
     14       1.4949      2.00000
     15       1.6388      2.00000
     16       1.9779      2.00000
     17       2.5745      2.00000
     18       2.7131      2.00000
     19       4.3201      2.00000
     20       4.6328      2.00000
     21       4.7345      2.00000
     22       4.9907      2.00000
     23       8.7983      0.00000
     24       9.4340      0.00000
     25       9.4922      0.00000
     26      10.4207      0.00000
     27      11.1230      0.00000
     28      11.1411      0.00000
     29      12.1758      0.00000
     30      12.3081      0.00000

 k-point   188 :       0.3077    0.2308    0.5000
  band No.  band energies     occupation 
      1     -52.3628      2.00000
      2     -28.5596      2.00000
      3     -28.5504      2.00000
      4     -28.5400      2.00000
      5     -11.2777      2.00000
      6     -10.9493      2.00000
      7     -10.6450      2.00000
      8      -9.6674      2.00000
      9      -9.6445      2.00000
     10      -9.5511      2.00000
     11      -9.4741      2.00000
     12      -9.3831      2.00000
     13      -1.2991      2.00000
     14       1.3523      2.00000
     15       1.5428      2.00000
     16       1.7896      2.00000
     17       2.1813      2.00000
     18       2.6373      2.00000
     19       4.0986      2.00000
     20       4.6861      2.00000
     21       4.7350      2.00000
     22       5.1608      2.00000
     23       9.0271      0.00000
     24       9.4091      0.00000
     25       9.5526      0.00000
     26      10.8015      0.00000
     27      11.2135      0.00000
     28      11.4097      0.00000
     29      12.2411      0.00000
     30      12.3734      0.00000

 k-point   189 :       0.3846    0.2308    0.5000
  band No.  band energies     occupation 
      1     -52.3626      2.00000
      2     -28.5599      2.00000
      3     -28.5581      2.00000
      4     -28.5396      2.00000
      5     -11.2392      2.00000
      6     -10.9294      2.00000
      7     -10.6485      2.00000
      8      -9.6617      2.00000
      9      -9.6307      2.00000
     10      -9.5309      2.00000
     11      -9.4588      2.00000
     12      -9.3467      2.00000
     13      -1.2771      2.00000
     14       1.2151      2.00000
     15       1.4445      2.00000
     16       1.6615      2.00000
     17       1.9431      2.00000
     18       2.6461      2.00000
     19       3.7384      2.00000
     20       4.6967      2.00000
     21       4.7777      2.00000
     22       5.3272      2.00000
     23       9.2562      0.00000
     24       9.4142      0.00000
     25       9.6415      0.00000
     26      11.0922      0.00000
     27      11.3527      0.00000
     28      11.5650      0.00000
     29      12.1208      0.00000
     30      12.5562      0.00000

 k-point   190 :       0.4615    0.2308    0.5000
  band No.  band energies     occupation 
      1     -52.3625      2.00000
      2     -28.5638      2.00000
      3     -28.5588      2.00000
      4     -28.5394      2.00000
      5     -11.2266      2.00000
      6     -10.9074      2.00000
      7     -10.6510      2.00000
      8      -9.6592      2.00000
      9      -9.6214      2.00000
     10      -9.5181      2.00000
     11      -9.4528      2.00000
     12      -9.3255      2.00000
     13      -1.2662      2.00000
     14       1.1315      2.00000
     15       1.3681      2.00000
     16       1.5547      2.00000
     17       1.9133      2.00000
     18       2.6762      2.00000
     19       3.4901      2.00000
     20       4.6931      2.00000
     21       4.7931      2.00000
     22       5.4181      2.00000
     23       9.3838      0.00000
     24       9.4359      0.00000
     25       9.7159      0.00000
     26      11.2706      0.00000
     27      11.4021      0.00000
     28      11.6977      0.00000
     29      11.9874      0.00000
     30      12.6705      0.00000

 k-point   191 :       0.3077    0.3077    0.5000
  band No.  band energies     occupation 
      1     -52.3626      2.00000
      2     -28.5592      2.00000
      3     -28.5502      2.00000
      4     -28.5499      2.00000
      5     -11.1948      2.00000
      6     -10.9704      2.00000
      7     -10.6698      2.00000
      8      -9.6491      2.00000
      9      -9.6371      2.00000
     10      -9.5094      2.00000
     11      -9.4200      2.00000
     12      -9.3597      2.00000
     13      -1.1879      2.00000
     14       1.2642      2.00000
     15       1.3187      2.00000
     16       1.5047      2.00000
     17       2.0935      2.00000
     18       2.3111      2.00000
     19       3.6195      2.00000
     20       4.8946      2.00000
     21       4.9941      2.00000
     22       5.2196      2.00000
     23       9.2004      0.00000
     24       9.4233      0.00000
     25       9.5714      0.00000
     26      11.1338      0.00000
     27      11.4735      0.00000
     28      11.7712      0.00000
     29      12.3860      0.00000
     30      12.3935      0.00000

 k-point   192 :       0.3846    0.3077    0.5000
  band No.  band energies     occupation 
      1     -52.3624      2.00000
      2     -28.5595      2.00000
      3     -28.5577      2.00000
      4     -28.5497      2.00000
      5     -11.1446      2.00000
      6     -10.9662      2.00000
      7     -10.6894      2.00000
      8      -9.6396      2.00000
      9      -9.6252      2.00000
     10      -9.4707      2.00000
     11      -9.3902      2.00000
     12      -9.3302      2.00000
     13      -1.0951      2.00000
     14       1.1266      2.00000
     15       1.1896      2.00000
     16       1.3173      2.00000
     17       1.9449      2.00000
     18       2.2424      2.00000
     19       3.1580      2.00000
     20       4.9982      2.00000
     21       5.1008      2.00000
     22       5.3395      2.00000
     23       9.3835      0.00000
     24       9.4774      0.00000
     25       9.6273      0.00000
     26      11.4244      0.00000
     27      11.7209      0.00000
     28      11.9691      0.00000
     29      12.3472      0.00000
     30      12.5472      0.00000

 k-point   193 :       0.4615    0.3077    0.5000
  band No.  band energies     occupation 
      1     -52.3623      2.00000
      2     -28.5634      2.00000
      3     -28.5584      2.00000
      4     -28.5495      2.00000
      5     -11.1304      2.00000
      6     -10.9486      2.00000
      7     -10.7003      2.00000
      8      -9.6369      2.00000
      9      -9.6159      2.00000
     10      -9.4442      2.00000
     11      -9.3830      2.00000
     12      -9.3086      2.00000
     13      -1.0430      2.00000
     14       1.0466      2.00000
     15       1.0851      2.00000
     16       1.2492      2.00000
     17       1.8820      2.00000
     18       2.2665      2.00000
     19       2.8441      2.00000
     20       5.0408      2.00000
     21       5.1227      2.00000
     22       5.4243      2.00000
     23       9.4548      0.00000
     24       9.5556      0.00000
     25       9.6895      0.00000
     26      11.6591      0.00000
     27      11.7977      0.00000
     28      12.0913      0.00000
     29      12.2576      0.00000
     30      12.6645      0.00000

 k-point   194 :       0.3846    0.3846    0.5000
  band No.  band energies     occupation 
      1     -52.3622      2.00000
      2     -28.5595      2.00000
      3     -28.5582      2.00000
      4     -28.5569      2.00000
      5     -11.0728      2.00000
      6     -10.9873      2.00000
      7     -10.7207      2.00000
      8      -9.6232      2.00000
      9      -9.6194      2.00000
     10      -9.4176      2.00000
     11      -9.3388      2.00000
     12      -9.3156      2.00000
     13      -0.9298      2.00000
     14       0.9802      2.00000
     15       1.0914      2.00000
     16       1.0928      2.00000
     17       1.9516      2.00000
     18       1.9738      2.00000
     19       2.6205      2.00000
     20       5.1790      2.00000
     21       5.2929      2.00000
     22       5.3656      2.00000
     23       9.5122      0.00000
     24       9.6090      0.00000
     25       9.6348      0.00000
     26      11.7365      0.00000
     27      12.0300      0.00000
     28      12.2267      0.00000
     29      12.5117      0.00000
     30      12.5439      0.00000

 k-point   195 :       0.4615    0.3846    0.5000
  band No.  band energies     occupation 
      1     -52.3621      2.00000
      2     -28.5630      2.00000
      3     -28.5589      2.00000
      4     -28.5571      2.00000
      5     -11.0498      2.00000
      6     -10.9804      2.00000
      7     -10.7376      2.00000
      8      -9.6212      2.00000
      9      -9.6090      2.00000
     10      -9.3824      2.00000
     11      -9.3260      2.00000
     12      -9.2964      2.00000
     13      -0.8319      2.00000
     14       0.9045      2.00000
     15       0.9840      2.00000
     16       1.0553      2.00000
     17       1.8518      2.00000
     18       1.9913      2.00000
     19       2.2417      2.00000
     20       5.2597      2.00000
     21       5.3318      2.00000
     22       5.4296      2.00000
     23       9.5692      0.00000
     24       9.6668      0.00000
     25       9.7175      0.00000
     26      11.9920      0.00000
     27      12.1483      0.00000
     28      12.3460      0.00000
     29      12.4662      0.00000
     30      12.6802      0.00000

 k-point   196 :       0.4615    0.4615    0.5000
  band No.  band energies     occupation 
      1     -52.3620      2.00000
      2     -28.5628      2.00000
      3     -28.5628      2.00000
      4     -28.5576      2.00000
      5     -11.0057      2.00000
      6     -10.9959      2.00000
      7     -10.7577      2.00000
      8      -9.6170      2.00000
      9      -9.6007      2.00000
     10      -9.3435      2.00000
     11      -9.2949      2.00000
     12      -9.2931      2.00000
     13      -0.7049      2.00000
     14       0.8920      2.00000
     15       0.9282      2.00000
     16       0.9770      2.00000
     17       1.7803      2.00000
     18       1.7829      2.00000
     19       1.9428      2.00000
     20       5.3615      2.00000
     21       5.4271      2.00000
     22       5.4346      2.00000
     23       9.6542      0.00000
     24       9.6698      0.00000
     25       9.8178      0.00000
     26      12.2467      0.00000
     27      12.3741      0.00000
     28      12.3900      0.00000
     29      12.5220      0.00000
     30      12.7686      0.00000


--------------------------------------------------------------------------------------------------------


 soft charge-density along one line, spin component           1
         0         1         2         3         4         5         6         7         8         9
 total charge-density along one line
 
 pseudopotential strength for first ion, spin component:           1
 11.866 -14.414   0.000  -0.002   0.000  -0.000   0.003  -0.000
-14.414  17.525  -0.000   0.003  -0.000   0.000  -0.003   0.000
  0.000  -0.000  -7.908  -0.000  -0.000   9.387   0.000   0.000
 -0.002   0.003  -0.000  -7.902   0.000   0.000   9.379  -0.000
  0.000  -0.000  -0.000   0.000  -7.954   0.000  -0.000   9.448
 -0.000   0.000   9.387   0.000   0.000 -10.960  -0.000  -0.000
  0.003  -0.003   0.000   9.379  -0.000  -0.000 -10.950   0.000
 -0.000   0.000   0.000  -0.000   9.448  -0.000   0.000 -11.042
 total augmentation occupancy for first ion, spin component:           1
  2.538   0.316   0.000  -0.004  -0.000   0.000   0.001   0.000
  0.316   0.063  -0.000   0.004   0.000   0.000   0.003   0.000
  0.000  -0.000   1.979  -0.000   0.000   0.198  -0.000   0.000
 -0.004   0.004  -0.000   1.987   0.000   0.000   0.194   0.000
 -0.000   0.000   0.000   0.000   2.155   0.000   0.000   0.278
  0.000   0.000   0.198   0.000   0.000   0.025   0.000   0.000
  0.001   0.003   0.000   0.194   0.000  -0.000   0.023   0.000
  0.000   0.000   0.000   0.000   0.278   0.000   0.000   0.041


------------------------ aborting loop because EDIFF is reached ----------------------------------------


 


 total charge     
 
# of ion     s       p       d       tot
----------------------------------------
  1        1.582   3.383   0.000   4.965
  2        1.555   3.522   0.000   5.078
  3        1.572   3.430   0.000   5.002
  4        1.522   0.375   9.864  11.762
  5        2.220   6.271   1.537  10.028
------------------------------------------------
tot        8.452  16.982  11.401  36.835
 
    CHARGE:  cpu time    0.1250: real time    0.1261
    FORLOC:  cpu time    0.0010: real time    0.0011
    FORNL :  cpu time    0.4349: real time    0.4371
    STRESS:  cpu time    1.6218: real time    1.6261
    FORCOR:  cpu time    0.0090: real time    0.0096
    FORHAR:  cpu time    0.0040: real time    0.0031
    MIXING:  cpu time    0.0000: real time    0.0007
    OFIELD:  cpu time    0.0010: real time    0.0008

  FORCE on cell =-STRESS in cart. coord.  units (eV):
  Direction    XX          YY          ZZ          XY          YZ          ZX
  --------------------------------------------------------------------------------------
  Alpha Z   182.16502   182.16502   182.16502
  Ewald   -1163.02254 -1163.02254 -1234.75565     0.00000    -0.00000    -0.00000
  Hartree   363.95144   363.95144   314.42556    -0.00000    -0.00000    -0.00000
  E(xc)    -219.95709  -219.95709  -219.97763     0.00000     0.00000     0.00000
  Local     -42.86566   -42.86566    77.02870     0.00000    -0.00000     0.00000
  n-local   -39.45405   -28.53946   -36.10603    -0.28695     0.03507    -0.32132
  augment   201.07928   201.07928   201.53226    -0.00000     0.00000     0.00000
  Kinetic   712.63037   711.42607   715.05393     0.52774     0.56338     0.76187
  Fock        0.00000     0.00000     0.00000     0.00000     0.00000     0.00000
  -------------------------------------------------------------------------------------
  Total      -0.61809    -0.61809    -0.63382     0.00000     0.00000     0.00000
  in kB     -15.21181   -15.21181   -15.59916     0.00000     0.00000     0.00000
  external pressure =      -15.34 kB  Pullay stress =        0.00 kB


 VOLUME and BASIS-vectors are now :
 -----------------------------------------------------------------------------
  energy-cutoff  :      520.00
  volume of cell :       65.10
      direct lattice vectors                 reciprocal lattice vectors
     3.988245693  0.000000000  0.000000000     0.250736809  0.000000000  0.000000000
     0.000000000  3.988245693  0.000000000     0.000000000  0.250736809  0.000000000
     0.000000000  0.000000000  4.092744452     0.000000000  0.000000000  0.244334825

  length of vectors
     3.988245693  3.988245693  4.092744452     0.250736809  0.250736809  0.244334825


 FORCES acting on ions
    electron-ion (+dipol)            ewald-force                    non-local-force                 convergence-correction
 -----------------------------------------------------------------------------------------------
   0.812E-14 0.221E-12 0.248E+02   0.135E-13 0.306E-15 -.257E+02   -.867E-18 0.000E+00 0.860E+00   0.456E-13 0.120E-12 0.740E-01
   0.135E-12 -.107E-12 0.248E+02   -.405E-14 0.322E-13 -.257E+02   0.000E+00 0.000E+00 0.860E+00   -.845E-13 0.217E-12 0.740E-01
   0.119E-12 0.130E-11 0.472E+02   -.660E-15 0.498E-14 -.544E+02   0.000E+00 0.000E+00 0.733E+01   0.153E-13 0.218E-12 -.970E-01
   -.354E-13 0.209E-13 -.115E+03   -.771E-14 0.340E-14 0.122E+03   0.000E+00 0.000E+00 -.665E+01   -.235E-12 -.737E-13 -.175E+00
   0.291E-12 0.192E-11 0.139E+02   -.120E-14 -.391E-13 -.162E+02   0.000E+00 0.694E-17 0.212E+01   -.174E-12 -.375E-12 0.153E+00
 -----------------------------------------------------------------------------------------------
   0.517E-12 0.336E-11 -.454E+01   -.131E-15 0.177E-14 -.711E-14   -.867E-18 0.694E-17 0.451E+01   -.433E-12 0.106E-12 0.291E-01
 
 
 POSITION                                       TOTAL-FORCE (eV/Angst)
 -----------------------------------------------------------------------------------
      0.00000      1.99412      2.50445         0.000000      0.000000     -0.001629
      1.99412      0.00000      2.50445         0.000000      0.000000     -0.001629
      1.99412      1.99412      0.40790         0.000000      0.000000     -0.003544
      0.00000      0.00000      0.06662        -0.000000     -0.000000     -0.002769
      1.99412      1.99412      2.28216         0.000000     -0.000000      0.009570
 -----------------------------------------------------------------------------------
    total drift:                                0.000000      0.000000     -0.004412


--------------------------------------------------------------------------------------------------------



  FREE ENERGIE OF THE ION-ELECTRON SYSTEM (eV)
  ---------------------------------------------------
  free  energy   TOTEN  =       -34.83944848 eV

  energy  without entropy=      -34.83944848  energy(sigma->0) =      -34.83944848
 


--------------------------------------------------------------------------------------------------------


    POTLOK:  cpu time    0.0330: real time    0.0326


--------------------------------------------------------------------------------------------------------


     LOOP+:  cpu time   50.2944: real time   50.6074
    4ORBIT:  cpu time    0.0000: real time    0.0000
 


 total charge     
 
# of ion     s       p       d       tot
----------------------------------------
  1        1.582   3.383   0.000   4.965
  2        1.555   3.522   0.000   5.078
  3        1.572   3.430   0.000   5.002
  4        1.522   0.375   9.864  11.762
  5        2.220   6.271   1.537  10.028
------------------------------------------------
tot        8.452  16.982  11.401  36.835
 

 total amount of memory used by VASP on root node    78280. kBytes
========================================================================

   base      :      30000. kBytes
   nonl-proj :      38138. kBytes
   fftplans  :       1585. kBytes
   grid      :       1000. kBytes
   one-center:         31. kBytes
   wavefun   :       7526. kBytes
 
  
  
 General timing and accounting informations for this job:
 ========================================================
  
                  Total CPU time used (sec):       59.773
                            User time (sec):       53.604
                          System time (sec):        6.169
                         Elapsed time (sec):       60.324
  
                   Maximum memory used (kb):      156168.
                   Average memory used (kb):           0.
  
                          Minor page faults:        60690
                          Major page faults:            1
                 Voluntary context switches:         2756
