 vasp.5.4.4.18Apr17-6-g9f103f2a35 (build Jan 10 2024 09:48:00) complex          
  
 executed on             LinuxIFC date 2024.04.17  22:33:14
 running on   64 total cores
 distrk:  each k-point on   64 cores,    1 groups
 distr:  one band on NCORES_PER_BAND=   8 cores,    8 groups


--------------------------------------------------------------------------------------------------------


 INCAR:
 POTCAR:    PAW_PBE F 08Apr2002                   
 POTCAR:    PAW_PBE Ti_sv 26Sep2005               
 POTCAR:    PAW_PBE F 08Apr2002                   
   VRHFIN =F: s2p5                                                              
   LEXCH  = PE                                                                  
   EATOM  =   659.6475 eV,   48.4827 Ry                                         
                                                                                
   TITEL  = PAW_PBE F 08Apr2002                                                 
   LULTRA =        F    use ultrasoft PP ?                                      
   IUNSCR =        1    unscreen: 0-lin 1-nonlin 2-no                           
   RPACOR =    1.200    partial core radius                                     
   POMASS =   18.998; ZVAL   =    7.000    mass and valenz                      
   RCORE  =    1.520    outmost cutoff radius                                   
   RWIGS  =    1.500; RWIGS  =    0.794    wigner-seitz radius (au A)           
   ENMAX  =  400.000; ENMIN  =  300.000 eV                                      
   ICORE  =        2    local potential                                         
   LCOR   =        T    correct aug charges                                     
   LPAW   =        T    paw PP                                                  
   EAUG   =  613.614                                                            
   RMAX   =    1.555    core radius for proj-oper                               
   RAUG   =    1.300    factor for augmentation sphere                          
   RDEP   =    1.539    radius for radial grids                                 
   RDEPT  =    1.299    core radius for aug-charge                              
                                                                                
   Atomic configuration                                                         
    4 entries                                                                   
     n  l   j            E        occ.                                          
     1  0  0.50      -663.3661   2.0000                                         
     2  0  0.50       -29.8995   2.0000                                         
     2  1  0.50       -11.1114   5.0000                                         
     3  2  1.50       -10.8847   0.0000                                         
   Description                                                                  
     l       E           TYP  RCUT    TYP  RCUT                                 
     0    -29.8995018     23  1.200                                             
     0     -9.5240782     23  1.200                                             
     1    -11.1113914     23  1.520                                             
     1      1.3605826     23  1.520                                             
     2    -10.8846608      7  1.500                                             
  local pseudopotential read in
  partial core-charges read in
  partial kinetic energy density read in
  atomic valenz-charges read in
  non local Contribution for L=           0  read in
    real space projection operators read in
  non local Contribution for L=           0  read in
    real space projection operators read in
  non local Contribution for L=           1  read in
    real space projection operators read in
  non local Contribution for L=           1  read in
    real space projection operators read in
    PAW grid and wavefunctions read in
 
   number of l-projection  operators is LMAX  =           4
   number of lm-projection operators is LMMAX =           8
 
 POTCAR:    PAW_PBE Ti_sv 26Sep2005               
   VRHFIN =Ti: 3p4s3d                                                           
   LEXCH  = PE                                                                  
   EATOM  =  1588.0892 eV,  116.7213 Ry                                         
                                                                                
   TITEL  = PAW_PBE Ti_sv 26Sep2005                                             
   LULTRA =        F    use ultrasoft PP ?                                      
   IUNSCR =        1    unscreen: 0-lin 1-nonlin 2-no                           
   RPACOR =    2.000    partial core radius                                     
   POMASS =   47.880; ZVAL   =   12.000    mass and valenz                      
   RCORE  =    2.300    outmost cutoff radius                                   
   RWIGS  =    2.300; RWIGS  =    1.217    wigner-seitz radius (au A)           
   ENMAX  =  274.610; ENMIN  =  205.957 eV                                      
   ICORE  =        3    local potential                                         
   LCOR   =        T    correct aug charges                                     
   LPAW   =        T    paw PP                                                  
   EAUG   =  482.848                                                            
   RMAX   =    2.348    core radius for proj-oper                               
   RAUG   =    1.300    factor for augmentation sphere                          
   RDEP   =    2.381    radius for radial grids                                 
   RDEPT  =    1.930    core radius for aug-charge                              
                                                                                
   Atomic configuration                                                         
    8 entries                                                                   
     n  l   j            E        occ.                                          
     1  0  0.50     -4865.3608   2.0000                                         
     2  0  0.50      -533.1368   2.0000                                         
     2  1  1.50      -440.5031   6.0000                                         
     3  0  0.50       -59.3186   2.0000                                         
     4  0  0.50        -3.7291   1.0000                                         
     3  1  1.50       -35.7012   6.0000                                         
     3  2  2.50        -1.9157   3.0000                                         
     4  3  2.50        -1.3606   0.0000                                         
   Description                                                                  
     l       E           TYP  RCUT    TYP  RCUT                                 
     0    -59.3185931     23  1.800                                             
     0     -3.7290822     23  2.300                                             
     1    -35.7012045     23  2.300                                             
     1     -1.3605826     23  2.300                                             
     2     -1.9156920     23  2.300                                             
     2     -0.0236318     23  2.300                                             
     3     -1.3605826     23  2.300                                             
  local pseudopotential read in
  partial core-charges read in
  partial kinetic energy density read in
  atomic valenz-charges read in
  non local Contribution for L=           0  read in
    real space projection operators read in
  non local Contribution for L=           0  read in
    real space projection operators read in
  non local Contribution for L=           1  read in
    real space projection operators read in
  non local Contribution for L=           1  read in
    real space projection operators read in
  non local Contribution for L=           2  read in
    real space projection operators read in
  non local Contribution for L=           2  read in
    real space projection operators read in
    PAW grid and wavefunctions read in
 
   number of l-projection  operators is LMAX  =           6
   number of lm-projection operators is LMMAX =          18
 
  PAW_PBE F 08Apr2002                   :
 energy of atom  1       EATOM= -659.6475
 kinetic energy error for atom=    0.0323 (will be added to EATOM!!)
  PAW_PBE Ti_sv 26Sep2005               :
 energy of atom  2       EATOM=-1588.0892
 kinetic energy error for atom=    0.0042 (will be added to EATOM!!)
 
 
 POSCAR: F3 Ti1                                  
  positions in direct lattice
  velocities in cartesian coordinates
 exchange correlation table for  LEXCH =        8
   RHO(1)=    0.500       N(1)  =     2000
   RHO(2)=  100.500       N(2)  =     4000
 


--------------------------------------------------------------------------------------------------------


 ion  position               nearest neighbor table
   1  0.000  0.000  0.500-   4 2.00   4 2.00
   2  0.000  0.500  0.000-   4 2.00   4 2.00
   3  0.500  0.000  0.000-   4 2.00   4 2.00
   4  0.000  0.000  0.000-   1 2.00   2 2.00   3 2.00   1 2.00   2 2.00   3 2.00
 
  LATTYP: Found a simple cubic cell.
 ALAT       =     4.0024579413
  
  Lattice vectors:
  
 A1 = (   4.0024579413,   0.0000000000,   0.0000000000)
 A2 = (   0.0000000000,   4.0024579413,   0.0000000000)
 A3 = (   0.0000000000,   0.0000000000,   4.0024579413)


Analysis of symmetry for initial positions (statically):
=====================================================================
 Subroutine PRICEL returns:
 Original cell was already a primitive cell.
 

 Routine SETGRP: Setting up the symmetry group for a 
 simple cubic supercell.


 Subroutine GETGRP returns: Found 48 space group operations
 (whereof 48 operations were pure point group operations)
 out of a pool of 48 trial point group operations.


The static configuration has the point symmetry O_h .


Analysis of symmetry for dynamics (positions and initial velocities):
=====================================================================
 Subroutine PRICEL returns:
 Original cell was already a primitive cell.
 

 Routine SETGRP: Setting up the symmetry group for a 
 simple cubic supercell.


 Subroutine GETGRP returns: Found 48 space group operations
 (whereof 48 operations were pure point group operations)
 out of a pool of 48 trial point group operations.


The dynamic configuration has the point symmetry O_h .


Analysis of structural, dynamic, and magnetic symmetry:
=====================================================================
 Subroutine PRICEL returns:
 Original cell was already a primitive cell.
 

 Routine SETGRP: Setting up the symmetry group for a 
 simple cubic supercell.


 Subroutine GETGRP returns: Found 48 space group operations
 (whereof 48 operations were pure point group operations)
 out of a pool of 48 trial point group operations.


The magnetic configuration has the point symmetry O_h .


 Subroutine INISYM returns: Found 48 space group operations
 (whereof 48 operations are pure point group operations),
 and found     1 'primitive' translations

 
 
 KPOINTS: 0.040   6   6   6   20  0.040  144    6 
  k-points in reciprocal lattice
Space group operators:
 irot       det(A)        alpha          n_x          n_y          n_z        tau_x        tau_y        tau_z
    1     1.000000     0.000000     1.000000     0.000000     0.000000     0.000000     0.000000     0.000000
    2    -1.000000     0.000000     1.000000     0.000000     0.000000     0.000000     0.000000     0.000000
    3     1.000000   120.000000    -0.577350    -0.577350    -0.577350     0.000000     0.000000     0.000000
    4    -1.000000   120.000000    -0.577350    -0.577350    -0.577350     0.000000     0.000000     0.000000
    5     1.000000   120.000000     0.577350     0.577350     0.577350     0.000000     0.000000     0.000000
    6    -1.000000   120.000000     0.577350     0.577350     0.577350     0.000000     0.000000     0.000000
    7     1.000000    90.000000     0.000000     0.000000    -1.000000     0.000000     0.000000     0.000000
    8    -1.000000    90.000000     0.000000     0.000000    -1.000000     0.000000     0.000000     0.000000
    9     1.000000   180.000000     0.000000     0.707107     0.707107     0.000000     0.000000     0.000000
   10    -1.000000   180.000000     0.000000     0.707107     0.707107     0.000000     0.000000     0.000000
   11     1.000000    90.000000     0.000000     1.000000     0.000000     0.000000     0.000000     0.000000
   12    -1.000000    90.000000     0.000000     1.000000     0.000000     0.000000     0.000000     0.000000
   13     1.000000   180.000000     0.000000     0.000000     1.000000     0.000000     0.000000     0.000000
   14    -1.000000   180.000000     0.000000     0.000000     1.000000     0.000000     0.000000     0.000000
   15     1.000000   120.000000    -0.577350     0.577350     0.577350     0.000000     0.000000     0.000000
   16    -1.000000   120.000000    -0.577350     0.577350     0.577350     0.000000     0.000000     0.000000
   17     1.000000   120.000000    -0.577350     0.577350    -0.577350     0.000000     0.000000     0.000000
   18    -1.000000   120.000000    -0.577350     0.577350    -0.577350     0.000000     0.000000     0.000000
   19     1.000000    90.000000     0.000000     0.000000     1.000000     0.000000     0.000000     0.000000
   20    -1.000000    90.000000     0.000000     0.000000     1.000000     0.000000     0.000000     0.000000
   21     1.000000    90.000000    -1.000000     0.000000     0.000000     0.000000     0.000000     0.000000
   22    -1.000000    90.000000    -1.000000     0.000000     0.000000     0.000000     0.000000     0.000000
   23     1.000000   180.000000     0.707107     0.000000     0.707107     0.000000     0.000000     0.000000
   24    -1.000000   180.000000     0.707107     0.000000     0.707107     0.000000     0.000000     0.000000
   25     1.000000   120.000000     0.577350    -0.577350     0.577350     0.000000     0.000000     0.000000
   26    -1.000000   120.000000     0.577350    -0.577350     0.577350     0.000000     0.000000     0.000000
   27     1.000000   120.000000    -0.577350    -0.577350     0.577350     0.000000     0.000000     0.000000
   28    -1.000000   120.000000    -0.577350    -0.577350     0.577350     0.000000     0.000000     0.000000
   29     1.000000   180.000000     1.000000     0.000000     0.000000     0.000000     0.000000     0.000000
   30    -1.000000   180.000000     1.000000     0.000000     0.000000     0.000000     0.000000     0.000000
   31     1.000000    90.000000     0.000000    -1.000000     0.000000     0.000000     0.000000     0.000000
   32    -1.000000    90.000000     0.000000    -1.000000     0.000000     0.000000     0.000000     0.000000
   33     1.000000   180.000000     0.707107     0.707107     0.000000     0.000000     0.000000     0.000000
   34    -1.000000   180.000000     0.707107     0.707107     0.000000     0.000000     0.000000     0.000000
   35     1.000000    90.000000     1.000000     0.000000     0.000000     0.000000     0.000000     0.000000
   36    -1.000000    90.000000     1.000000     0.000000     0.000000     0.000000     0.000000     0.000000
   37     1.000000   120.000000     0.577350    -0.577350    -0.577350     0.000000     0.000000     0.000000
   38    -1.000000   120.000000     0.577350    -0.577350    -0.577350     0.000000     0.000000     0.000000
   39     1.000000   180.000000     0.000000     1.000000     0.000000     0.000000     0.000000     0.000000
   40    -1.000000   180.000000     0.000000     1.000000     0.000000     0.000000     0.000000     0.000000
   41     1.000000   120.000000     0.577350     0.577350    -0.577350     0.000000     0.000000     0.000000
   42    -1.000000   120.000000     0.577350     0.577350    -0.577350     0.000000     0.000000     0.000000
   43     1.000000   180.000000     0.000000    -0.707107     0.707107     0.000000     0.000000     0.000000
   44    -1.000000   180.000000     0.000000    -0.707107     0.707107     0.000000     0.000000     0.000000
   45     1.000000   180.000000     0.707107    -0.707107     0.000000     0.000000     0.000000     0.000000
   46    -1.000000   180.000000     0.707107    -0.707107     0.000000     0.000000     0.000000     0.000000
   47     1.000000   180.000000     0.707107     0.000000    -0.707107     0.000000     0.000000     0.000000
   48    -1.000000   180.000000     0.707107     0.000000    -0.707107     0.000000     0.000000     0.000000

 ----------------------------------------------------------------------------- 
|                                                                             |
|           W    W    AA    RRRRR   N    N  II  N    N   GGGG   !!!           |
|           W    W   A  A   R    R  NN   N  II  NN   N  G    G  !!!           |
|           W    W  A    A  R    R  N N  N  II  N N  N  G       !!!           |
|           W WW W  AAAAAA  RRRRR   N  N N  II  N  N N  G  GGG   !            |
|           WW  WW  A    A  R   R   N   NN  II  N   NN  G    G                |
|           W    W  A    A  R    R  N    N  II  N    N   GGGG   !!!           |
|                                                                             |
|      Your generating k-point grid is not commensurate to the symmetry       |
|      of the lattice.  This can cause   slow convergence with respect        |
|      to k-points for HF type calculations                                   |
|      suggested SOLUTIONS:                                                   |
|       ) if not already the case, use automatic k-point generation           |
|       ) shift your grid to Gamma (G) (e.g. required for hex or fcc lattice) |
|                                                                             |
 ----------------------------------------------------------------------------- 

 
 Subroutine IBZKPT_HF returns following result:
 ==============================================
 
 Found    360 k-points in 1st BZ
 the following    360 k-points will be used (e.g. in the exchange kernel)
 Following reciprocal coordinates:   # in IRBZ
  0.000000  0.000000  0.000000    0.00462963   1 t-inv F
  0.166667  0.000000  0.000000    0.00462963   2 t-inv F
  0.333333  0.000000  0.000000    0.00462963   3 t-inv F
  0.500000  0.000000  0.000000    0.00462963   4 t-inv F
  0.166667  0.166667  0.000000    0.00462963   5 t-inv F
  0.333333  0.166667  0.000000    0.00462963   6 t-inv F
  0.500000  0.166667  0.000000    0.00462963   7 t-inv F
  0.333333  0.333333  0.000000    0.00462963   8 t-inv F
  0.500000  0.333333  0.000000    0.00462963   9 t-inv F
  0.500000  0.500000  0.000000    0.00462963  10 t-inv F
  0.166667  0.166667  0.166667    0.00462963  11 t-inv F
  0.333333  0.166667  0.166667    0.00462963  12 t-inv F
  0.500000  0.166667  0.166667    0.00462963  13 t-inv F
  0.333333  0.333333  0.166667    0.00462963  14 t-inv F
  0.500000  0.333333  0.166667    0.00462963  15 t-inv F
  0.500000  0.500000  0.166667    0.00462963  16 t-inv F
  0.333333  0.333333  0.333333    0.00462963  17 t-inv F
  0.500000  0.333333  0.333333    0.00462963  18 t-inv F
  0.500000  0.500000  0.333333    0.00462963  19 t-inv F
  0.500000  0.500000  0.500000    0.00462963  20 t-inv F
  0.000000  0.000000  0.000000    0.00000000  21 t-inv F
  0.000000  0.027778  0.000000    0.00000000  22 t-inv F
  0.000000  0.055556  0.000000    0.00000000  23 t-inv F
  0.000000  0.083333  0.000000    0.00000000  24 t-inv F
  0.000000  0.111111  0.000000    0.00000000  25 t-inv F
  0.000000  0.138889  0.000000    0.00000000  26 t-inv F
  0.000000  0.166667  0.000000    0.00000000  27 t-inv F
  0.000000  0.194444  0.000000    0.00000000  28 t-inv F
  0.000000  0.222222  0.000000    0.00000000  29 t-inv F
  0.000000  0.250000  0.000000    0.00000000  30 t-inv F
  0.000000  0.277778  0.000000    0.00000000  31 t-inv F
  0.000000  0.305556  0.000000    0.00000000  32 t-inv F
  0.000000  0.333333  0.000000    0.00000000  33 t-inv F
  0.000000  0.361111  0.000000    0.00000000  34 t-inv F
  0.000000  0.388889  0.000000    0.00000000  35 t-inv F
  0.000000  0.416667  0.000000    0.00000000  36 t-inv F
  0.000000  0.444444  0.000000    0.00000000  37 t-inv F
  0.000000  0.472222  0.000000    0.00000000  38 t-inv F
  0.000000  0.500000  0.000000    0.00000000  39 t-inv F
  0.000000  0.500000  0.000000    0.00000000  40 t-inv F
  0.027778  0.500000  0.000000    0.00000000  41 t-inv F
  0.055556  0.500000  0.000000    0.00000000  42 t-inv F
  0.083333  0.500000  0.000000    0.00000000  43 t-inv F
  0.111111  0.500000  0.000000    0.00000000  44 t-inv F
  0.138889  0.500000  0.000000    0.00000000  45 t-inv F
  0.166667  0.500000  0.000000    0.00000000  46 t-inv F
  0.194444  0.500000  0.000000    0.00000000  47 t-inv F
  0.222222  0.500000  0.000000    0.00000000  48 t-inv F
  0.250000  0.500000  0.000000    0.00000000  49 t-inv F
  0.277778  0.500000  0.000000    0.00000000  50 t-inv F
  0.305556  0.500000  0.000000    0.00000000  51 t-inv F
  0.333333  0.500000  0.000000    0.00000000  52 t-inv F
  0.361111  0.500000  0.000000    0.00000000  53 t-inv F
  0.388889  0.500000  0.000000    0.00000000  54 t-inv F
  0.416667  0.500000  0.000000    0.00000000  55 t-inv F
  0.444444  0.500000  0.000000    0.00000000  56 t-inv F
  0.472222  0.500000  0.000000    0.00000000  57 t-inv F
  0.500000  0.500000  0.000000    0.00000000  58 t-inv F
  0.500000  0.500000  0.000000    0.00000000  59 t-inv F
  0.480769  0.480769  0.000000    0.00000000  60 t-inv F
  0.461538  0.461538  0.000000    0.00000000  61 t-inv F
  0.442308  0.442308  0.000000    0.00000000  62 t-inv F
  0.423077  0.423077  0.000000    0.00000000  63 t-inv F
  0.403846  0.403846  0.000000    0.00000000  64 t-inv F
  0.384615  0.384615  0.000000    0.00000000  65 t-inv F
  0.365385  0.365385  0.000000    0.00000000  66 t-inv F
  0.346154  0.346154  0.000000    0.00000000  67 t-inv F
  0.326923  0.326923  0.000000    0.00000000  68 t-inv F
  0.307692  0.307692  0.000000    0.00000000  69 t-inv F
  0.288462  0.288462  0.000000    0.00000000  70 t-inv F
  0.269231  0.269231  0.000000    0.00000000  71 t-inv F
  0.250000  0.250000  0.000000    0.00000000  72 t-inv F
  0.230769  0.230769  0.000000    0.00000000  73 t-inv F
  0.211538  0.211538  0.000000    0.00000000  74 t-inv F
  0.192308  0.192308  0.000000    0.00000000  75 t-inv F
  0.173077  0.173077  0.000000    0.00000000  76 t-inv F
  0.153846  0.153846  0.000000    0.00000000  77 t-inv F
  0.134615  0.134615  0.000000    0.00000000  78 t-inv F
  0.115385  0.115385  0.000000    0.00000000  79 t-inv F
  0.096154  0.096154  0.000000    0.00000000  80 t-inv F
  0.076923  0.076923  0.000000    0.00000000  81 t-inv F
  0.057692  0.057692  0.000000    0.00000000  82 t-inv F
  0.038462  0.038462  0.000000    0.00000000  83 t-inv F
  0.019231  0.019231  0.000000    0.00000000  84 t-inv F
  0.000000  0.000000  0.000000    0.00000000  85 t-inv F
  0.000000  0.000000  0.000000    0.00000000  86 t-inv F
  0.015625  0.015625  0.015625    0.00000000  87 t-inv F
  0.031250  0.031250  0.031250    0.00000000  88 t-inv F
  0.046875  0.046875  0.046875    0.00000000  89 t-inv F
  0.062500  0.062500  0.062500    0.00000000  90 t-inv F
  0.078125  0.078125  0.078125    0.00000000  91 t-inv F
  0.093750  0.093750  0.093750    0.00000000  92 t-inv F
  0.109375  0.109375  0.109375    0.00000000  93 t-inv F
  0.125000  0.125000  0.125000    0.00000000  94 t-inv F
  0.140625  0.140625  0.140625    0.00000000  95 t-inv F
  0.156250  0.156250  0.156250    0.00000000  96 t-inv F
  0.171875  0.171875  0.171875    0.00000000  97 t-inv F
  0.187500  0.187500  0.187500    0.00000000  98 t-inv F
  0.203125  0.203125  0.203125    0.00000000  99 t-inv F
  0.218750  0.218750  0.218750    0.00000000 100 t-inv F
  0.234375  0.234375  0.234375    0.00000000 101 t-inv F
  0.250000  0.250000  0.250000    0.00000000 102 t-inv F
  0.265625  0.265625  0.265625    0.00000000 103 t-inv F
  0.281250  0.281250  0.281250    0.00000000 104 t-inv F
  0.296875  0.296875  0.296875    0.00000000 105 t-inv F
  0.312500  0.312500  0.312500    0.00000000 106 t-inv F
  0.328125  0.328125  0.328125    0.00000000 107 t-inv F
  0.343750  0.343750  0.343750    0.00000000 108 t-inv F
  0.359375  0.359375  0.359375    0.00000000 109 t-inv F
  0.375000  0.375000  0.375000    0.00000000 110 t-inv F
  0.390625  0.390625  0.390625    0.00000000 111 t-inv F
  0.406250  0.406250  0.406250    0.00000000 112 t-inv F
  0.421875  0.421875  0.421875    0.00000000 113 t-inv F
  0.437500  0.437500  0.437500    0.00000000 114 t-inv F
  0.453125  0.453125  0.453125    0.00000000 115 t-inv F
  0.468750  0.468750  0.468750    0.00000000 116 t-inv F
  0.484375  0.484375  0.484375    0.00000000 117 t-inv F
  0.500000  0.500000  0.500000    0.00000000 118 t-inv F
  0.500000  0.500000  0.500000    0.00000000 119 t-inv F
  0.480769  0.500000  0.480769    0.00000000 120 t-inv F
  0.461538  0.500000  0.461538    0.00000000 121 t-inv F
  0.442308  0.500000  0.442308    0.00000000 122 t-inv F
  0.423077  0.500000  0.423077    0.00000000 123 t-inv F
  0.403846  0.500000  0.403846    0.00000000 124 t-inv F
  0.384615  0.500000  0.384615    0.00000000 125 t-inv F
  0.365385  0.500000  0.365385    0.00000000 126 t-inv F
  0.346154  0.500000  0.346154    0.00000000 127 t-inv F
  0.326923  0.500000  0.326923    0.00000000 128 t-inv F
  0.307692  0.500000  0.307692    0.00000000 129 t-inv F
  0.288462  0.500000  0.288462    0.00000000 130 t-inv F
  0.269231  0.500000  0.269231    0.00000000 131 t-inv F
  0.250000  0.500000  0.250000    0.00000000 132 t-inv F
  0.230769  0.500000  0.230769    0.00000000 133 t-inv F
  0.211538  0.500000  0.211538    0.00000000 134 t-inv F
  0.192308  0.500000  0.192308    0.00000000 135 t-inv F
  0.173077  0.500000  0.173077    0.00000000 136 t-inv F
  0.153846  0.500000  0.153846    0.00000000 137 t-inv F
  0.134615  0.500000  0.134615    0.00000000 138 t-inv F
  0.115385  0.500000  0.115385    0.00000000 139 t-inv F
  0.096154  0.500000  0.096154    0.00000000 140 t-inv F
  0.076923  0.500000  0.076923    0.00000000 141 t-inv F
  0.057692  0.500000  0.057692    0.00000000 142 t-inv F
  0.038462  0.500000  0.038462    0.00000000 143 t-inv F
  0.019231  0.500000  0.019231    0.00000000 144 t-inv F
  0.000000  0.500000  0.000000    0.00000000 145 t-inv F
  0.500000  0.500000  0.500000    0.00000000 146 t-inv F
  0.500000  0.500000  0.472222    0.00000000 147 t-inv F
  0.500000  0.500000  0.444444    0.00000000 148 t-inv F
  0.500000  0.500000  0.416667    0.00000000 149 t-inv F
  0.500000  0.500000  0.388889    0.00000000 150 t-inv F
  0.500000  0.500000  0.361111    0.00000000 151 t-inv F
  0.500000  0.500000  0.333333    0.00000000 152 t-inv F
  0.500000  0.500000  0.305556    0.00000000 153 t-inv F
  0.500000  0.500000  0.277778    0.00000000 154 t-inv F
  0.500000  0.500000  0.250000    0.00000000 155 t-inv F
  0.500000  0.500000  0.222222    0.00000000 156 t-inv F
  0.500000  0.500000  0.194444    0.00000000 157 t-inv F
  0.500000  0.500000  0.166667    0.00000000 158 t-inv F
  0.500000  0.500000  0.138889    0.00000000 159 t-inv F
  0.500000  0.500000  0.111111    0.00000000 160 t-inv F
  0.500000  0.500000  0.083333    0.00000000 161 t-inv F
  0.500000  0.500000  0.055556    0.00000000 162 t-inv F
  0.500000  0.500000  0.027778    0.00000000 163 t-inv F
  0.500000  0.500000  0.000000    0.00000000 164 t-inv F
 -0.166667  0.000000  0.000000    0.00462963   2 t-inv F
  0.000000  0.166667  0.000000    0.00462963   2 t-inv F
  0.000000 -0.166667  0.000000    0.00462963   2 t-inv F
  0.000000  0.000000  0.166667    0.00462963   2 t-inv F
  0.000000  0.000000 -0.166667    0.00462963   2 t-inv F
 -0.333333  0.000000  0.000000    0.00462963   3 t-inv F
  0.000000  0.333333  0.000000    0.00462963   3 t-inv F
  0.000000 -0.333333  0.000000    0.00462963   3 t-inv F
  0.000000  0.000000  0.333333    0.00462963   3 t-inv F
  0.000000  0.000000 -0.333333    0.00462963   3 t-inv F
  0.000000  0.500000  0.000000    0.00462963   4 t-inv F
  0.000000  0.000000  0.500000    0.00462963   4 t-inv F
 -0.166667 -0.166667  0.000000    0.00462963   5 t-inv F
  0.000000  0.166667  0.166667    0.00462963   5 t-inv F
  0.000000 -0.166667 -0.166667    0.00462963   5 t-inv F
  0.166667  0.000000  0.166667    0.00462963   5 t-inv F
 -0.166667  0.000000 -0.166667    0.00462963   5 t-inv F
 -0.166667  0.166667  0.000000    0.00462963   5 t-inv F
  0.166667 -0.166667  0.000000    0.00462963   5 t-inv F
 -0.166667  0.000000  0.166667    0.00462963   5 t-inv F
  0.166667  0.000000 -0.166667    0.00462963   5 t-inv F
  0.000000 -0.166667  0.166667    0.00462963   5 t-inv F
  0.000000  0.166667 -0.166667    0.00462963   5 t-inv F
 -0.333333 -0.166667  0.000000    0.00462963   6 t-inv F
  0.000000  0.333333  0.166667    0.00462963   6 t-inv F
  0.000000 -0.333333 -0.166667    0.00462963   6 t-inv F
  0.166667  0.000000  0.333333    0.00462963   6 t-inv F
 -0.166667  0.000000 -0.333333    0.00462963   6 t-inv F
 -0.166667  0.333333  0.000000    0.00462963   6 t-inv F
  0.166667 -0.333333  0.000000    0.00462963   6 t-inv F
 -0.333333  0.000000  0.166667    0.00462963   6 t-inv F
  0.333333  0.000000 -0.166667    0.00462963   6 t-inv F
  0.000000  0.166667  0.333333    0.00462963   6 t-inv F
  0.000000 -0.166667 -0.333333    0.00462963   6 t-inv F
  0.000000 -0.333333  0.166667    0.00462963   6 t-inv F
  0.000000  0.333333 -0.166667    0.00462963   6 t-inv F
 -0.166667  0.000000  0.333333    0.00462963   6 t-inv F
  0.166667  0.000000 -0.333333    0.00462963   6 t-inv F
  0.333333  0.000000  0.166667    0.00462963   6 t-inv F
 -0.333333  0.000000 -0.166667    0.00462963   6 t-inv F
  0.000000 -0.166667  0.333333    0.00462963   6 t-inv F
  0.000000  0.166667 -0.333333    0.00462963   6 t-inv F
  0.333333 -0.166667  0.000000    0.00462963   6 t-inv F
 -0.333333  0.166667  0.000000    0.00462963   6 t-inv F
  0.166667  0.333333  0.000000    0.00462963   6 t-inv F
 -0.166667 -0.333333  0.000000    0.00462963   6 t-inv F
 -0.500000 -0.166667  0.000000    0.00462963   7 t-inv F
  0.000000  0.500000  0.166667    0.00462963   7 t-inv F
  0.000000 -0.500000 -0.166667    0.00462963   7 t-inv F
  0.166667  0.000000  0.500000    0.00462963   7 t-inv F
 -0.166667  0.000000 -0.500000    0.00462963   7 t-inv F
 -0.166667  0.500000  0.000000    0.00462963   7 t-inv F
  0.166667 -0.500000  0.000000    0.00462963   7 t-inv F
 -0.500000  0.000000  0.166667    0.00462963   7 t-inv F
  0.500000  0.000000 -0.166667    0.00462963   7 t-inv F
  0.000000  0.166667  0.500000    0.00462963   7 t-inv F
  0.000000 -0.166667 -0.500000    0.00462963   7 t-inv F
 -0.333333 -0.333333  0.000000    0.00462963   8 t-inv F
  0.000000  0.333333  0.333333    0.00462963   8 t-inv F
  0.000000 -0.333333 -0.333333    0.00462963   8 t-inv F
  0.333333  0.000000  0.333333    0.00462963   8 t-inv F
 -0.333333  0.000000 -0.333333    0.00462963   8 t-inv F
 -0.333333  0.333333  0.000000    0.00462963   8 t-inv F
  0.333333 -0.333333  0.000000    0.00462963   8 t-inv F
 -0.333333  0.000000  0.333333    0.00462963   8 t-inv F
  0.333333  0.000000 -0.333333    0.00462963   8 t-inv F
  0.000000 -0.333333  0.333333    0.00462963   8 t-inv F
  0.000000  0.333333 -0.333333    0.00462963   8 t-inv F
 -0.500000 -0.333333  0.000000    0.00462963   9 t-inv F
  0.000000  0.500000  0.333333    0.00462963   9 t-inv F
  0.000000 -0.500000 -0.333333    0.00462963   9 t-inv F
  0.333333  0.000000  0.500000    0.00462963   9 t-inv F
 -0.333333  0.000000 -0.500000    0.00462963   9 t-inv F
 -0.333333  0.500000  0.000000    0.00462963   9 t-inv F
  0.333333 -0.500000  0.000000    0.00462963   9 t-inv F
 -0.500000  0.000000  0.333333    0.00462963   9 t-inv F
  0.500000  0.000000 -0.333333    0.00462963   9 t-inv F
  0.000000  0.333333  0.500000    0.00462963   9 t-inv F
  0.000000 -0.333333 -0.500000    0.00462963   9 t-inv F
  0.000000  0.500000  0.500000    0.00462963  10 t-inv F
  0.500000  0.000000  0.500000    0.00462963  10 t-inv F
 -0.166667 -0.166667 -0.166667    0.00462963  11 t-inv F
 -0.166667  0.166667  0.166667    0.00462963  11 t-inv F
  0.166667 -0.166667 -0.166667    0.00462963  11 t-inv F
 -0.166667 -0.166667  0.166667    0.00462963  11 t-inv F
  0.166667  0.166667 -0.166667    0.00462963  11 t-inv F
  0.166667 -0.166667  0.166667    0.00462963  11 t-inv F
 -0.166667  0.166667 -0.166667    0.00462963  11 t-inv F
 -0.333333 -0.166667 -0.166667    0.00462963  12 t-inv F
  0.166667  0.333333  0.166667    0.00462963  12 t-inv F
 -0.166667 -0.333333 -0.166667    0.00462963  12 t-inv F
  0.166667  0.166667  0.333333    0.00462963  12 t-inv F
 -0.166667 -0.166667 -0.333333    0.00462963  12 t-inv F
 -0.166667  0.333333  0.166667    0.00462963  12 t-inv F
  0.166667 -0.333333 -0.166667    0.00462963  12 t-inv F
 -0.333333  0.166667  0.166667    0.00462963  12 t-inv F
  0.333333 -0.166667 -0.166667    0.00462963  12 t-inv F
 -0.166667  0.166667  0.333333    0.00462963  12 t-inv F
  0.166667 -0.166667 -0.333333    0.00462963  12 t-inv F
 -0.333333 -0.166667  0.166667    0.00462963  12 t-inv F
  0.333333  0.166667 -0.166667    0.00462963  12 t-inv F
 -0.166667 -0.333333  0.166667    0.00462963  12 t-inv F
  0.166667  0.333333 -0.166667    0.00462963  12 t-inv F
 -0.166667 -0.166667  0.333333    0.00462963  12 t-inv F
  0.166667  0.166667 -0.333333    0.00462963  12 t-inv F
  0.166667 -0.333333  0.166667    0.00462963  12 t-inv F
 -0.166667  0.333333 -0.166667    0.00462963  12 t-inv F
  0.333333 -0.166667  0.166667    0.00462963  12 t-inv F
 -0.333333  0.166667 -0.166667    0.00462963  12 t-inv F
  0.166667 -0.166667  0.333333    0.00462963  12 t-inv F
 -0.166667  0.166667 -0.333333    0.00462963  12 t-inv F
 -0.500000 -0.166667 -0.166667    0.00462963  13 t-inv F
  0.166667  0.500000  0.166667    0.00462963  13 t-inv F
 -0.166667 -0.500000 -0.166667    0.00462963  13 t-inv F
  0.166667  0.166667  0.500000    0.00462963  13 t-inv F
 -0.166667 -0.166667 -0.500000    0.00462963  13 t-inv F
 -0.166667  0.500000  0.166667    0.00462963  13 t-inv F
  0.166667 -0.500000 -0.166667    0.00462963  13 t-inv F
 -0.166667  0.166667  0.500000    0.00462963  13 t-inv F
  0.166667 -0.166667 -0.500000    0.00462963  13 t-inv F
 -0.500000 -0.166667  0.166667    0.00462963  13 t-inv F
  0.500000  0.166667 -0.166667    0.00462963  13 t-inv F
 -0.333333 -0.333333 -0.166667    0.00462963  14 t-inv F
  0.166667  0.333333  0.333333    0.00462963  14 t-inv F
 -0.166667 -0.333333 -0.333333    0.00462963  14 t-inv F
  0.333333  0.166667  0.333333    0.00462963  14 t-inv F
 -0.333333 -0.166667 -0.333333    0.00462963  14 t-inv F
 -0.333333  0.333333  0.166667    0.00462963  14 t-inv F
  0.333333 -0.333333 -0.166667    0.00462963  14 t-inv F
 -0.333333  0.166667  0.333333    0.00462963  14 t-inv F
  0.333333 -0.166667 -0.333333    0.00462963  14 t-inv F
 -0.166667  0.333333  0.333333    0.00462963  14 t-inv F
  0.166667 -0.333333 -0.333333    0.00462963  14 t-inv F
 -0.333333 -0.333333  0.166667    0.00462963  14 t-inv F
  0.333333  0.333333 -0.166667    0.00462963  14 t-inv F
 -0.166667 -0.333333  0.333333    0.00462963  14 t-inv F
  0.166667  0.333333 -0.333333    0.00462963  14 t-inv F
 -0.333333 -0.166667  0.333333    0.00462963  14 t-inv F
  0.333333  0.166667 -0.333333    0.00462963  14 t-inv F
  0.333333 -0.333333  0.166667    0.00462963  14 t-inv F
 -0.333333  0.333333 -0.166667    0.00462963  14 t-inv F
  0.333333 -0.166667  0.333333    0.00462963  14 t-inv F
 -0.333333  0.166667 -0.333333    0.00462963  14 t-inv F
  0.166667 -0.333333  0.333333    0.00462963  14 t-inv F
 -0.166667  0.333333 -0.333333    0.00462963  14 t-inv F
 -0.500000 -0.333333 -0.166667    0.00462963  15 t-inv F
  0.166667  0.500000  0.333333    0.00462963  15 t-inv F
 -0.166667 -0.500000 -0.333333    0.00462963  15 t-inv F
  0.333333  0.166667  0.500000    0.00462963  15 t-inv F
 -0.333333 -0.166667 -0.500000    0.00462963  15 t-inv F
 -0.333333  0.500000  0.166667    0.00462963  15 t-inv F
  0.333333 -0.500000 -0.166667    0.00462963  15 t-inv F
 -0.500000  0.166667  0.333333    0.00462963  15 t-inv F
  0.500000 -0.166667 -0.333333    0.00462963  15 t-inv F
 -0.166667  0.333333  0.500000    0.00462963  15 t-inv F
  0.166667 -0.333333 -0.500000    0.00462963  15 t-inv F
 -0.500000 -0.333333  0.166667    0.00462963  15 t-inv F
  0.500000  0.333333 -0.166667    0.00462963  15 t-inv F
 -0.166667 -0.500000  0.333333    0.00462963  15 t-inv F
  0.166667  0.500000 -0.333333    0.00462963  15 t-inv F
  0.333333 -0.500000  0.166667    0.00462963  15 t-inv F
 -0.333333  0.500000 -0.166667    0.00462963  15 t-inv F
  0.500000 -0.166667  0.333333    0.00462963  15 t-inv F
 -0.500000  0.166667 -0.333333    0.00462963  15 t-inv F
  0.333333 -0.166667 -0.500000    0.00462963  15 t-inv F
 -0.333333  0.166667  0.500000    0.00462963  15 t-inv F
  0.166667  0.333333 -0.500000    0.00462963  15 t-inv F
 -0.166667 -0.333333  0.500000    0.00462963  15 t-inv F
 -0.500000 -0.500000 -0.166667    0.00462963  16 t-inv F
  0.166667  0.500000  0.500000    0.00462963  16 t-inv F
 -0.166667 -0.500000 -0.500000    0.00462963  16 t-inv F
  0.500000  0.166667  0.500000    0.00462963  16 t-inv F
 -0.500000 -0.166667 -0.500000    0.00462963  16 t-inv F
 -0.333333 -0.333333 -0.333333    0.00462963  17 t-inv F
 -0.333333  0.333333  0.333333    0.00462963  17 t-inv F
  0.333333 -0.333333 -0.333333    0.00462963  17 t-inv F
 -0.333333 -0.333333  0.333333    0.00462963  17 t-inv F
  0.333333  0.333333 -0.333333    0.00462963  17 t-inv F
  0.333333 -0.333333  0.333333    0.00462963  17 t-inv F
 -0.333333  0.333333 -0.333333    0.00462963  17 t-inv F
 -0.500000 -0.333333 -0.333333    0.00462963  18 t-inv F
  0.333333  0.500000  0.333333    0.00462963  18 t-inv F
 -0.333333 -0.500000 -0.333333    0.00462963  18 t-inv F
  0.333333  0.333333  0.500000    0.00462963  18 t-inv F
 -0.333333 -0.333333 -0.500000    0.00462963  18 t-inv F
 -0.333333  0.500000  0.333333    0.00462963  18 t-inv F
  0.333333 -0.500000 -0.333333    0.00462963  18 t-inv F
 -0.333333  0.333333  0.500000    0.00462963  18 t-inv F
  0.333333 -0.333333 -0.500000    0.00462963  18 t-inv F
 -0.500000 -0.333333  0.333333    0.00462963  18 t-inv F
  0.500000  0.333333 -0.333333    0.00462963  18 t-inv F
 -0.500000 -0.500000 -0.333333    0.00462963  19 t-inv F
  0.333333  0.500000  0.500000    0.00462963  19 t-inv F
 -0.333333 -0.500000 -0.500000    0.00462963  19 t-inv F
  0.500000  0.333333  0.500000    0.00462963  19 t-inv F
 -0.500000 -0.333333 -0.500000    0.00462963  19 t-inv F


--------------------------------------------------------------------------------------------------------




 Dimension of arrays:
   k-points           NKPTS =    164   k-points in BZ     NKDIM =    360   number of bands    NBANDS=     24
   number of dos      NEDOS =    301   number of ions     NIONS =      4
   non local maximal  LDIM  =      6   non local SUM 2l+1 LMDIM =     18
   total plane-waves  NPLWV =  27000
   max r-space proj   IRMAX =      1   max aug-charges    IRDMAX= 130975
   dimension x,y,z NGX =    30 NGY =   30 NGZ =   30
   dimension x,y,z NGXF=    60 NGYF=   60 NGZF=   60
   support grid    NGXF=   120 NGYF=  120 NGZF=  120
   ions per type =               3   1
   NGX,Y,Z   is equivalent  to a cutoff of  12.46, 12.46, 12.46 a.u.
   NGXF,Y,Z  is equivalent  to a cutoff of  24.92, 24.92, 24.92 a.u.

 SYSTEM =  matgen-band                             
 POSCAR =  F3 Ti1                                  

 Startparameter for this run:
   NWRITE =      2    write-flag & timer
   PREC   = accura    normal or accurate (medium, high low for compatibility)
   ISTART =      1    job   : 0-new  1-cont  2-samecut
   ICHARG =     11    charge: 1-file 2-atom 10-const
   ISPIN  =      2    spin polarized calculation?
   LNONCOLLINEAR =      F non collinear calculations
   LSORBIT =      F    spin-orbit coupling
   INIWAV =      1    electr: 0-lowe 1-rand  2-diag
   LASPH  =      F    aspherical Exc in radial PAW
   METAGGA=      F    non-selfconsistent MetaGGA calc.

 Electronic Relaxation 1
   ENCUT  =  520.0 eV  38.22 Ry    6.18 a.u.   7.44  7.44  7.44*2*pi/ulx,y,z
   ENINI  =  520.0     initial cutoff
   ENAUG  =  613.6 eV  augmentation charge cutoff
   NELM   =    140;   NELMIN=  6; NELMDL=  0     # of ELM steps 
   EDIFF  = 0.1E-03   stopping-criterion for ELM
   LREAL  =      F    real-space projection
   NLSPLINE    = F    spline interpolate recip. space projectors
   LCOMPAT=      F    compatible to vasp.4.4
   GGA_COMPAT  = T    GGA compatible to vasp.4.4-vasp.4.6
   LMAXPAW     = -100 max onsite density
   LMAXMIX     =    4 max onsite mixed and CHGCAR
   VOSKOWN=      0    Vosko Wilk Nusair interpolation
   ROPT   =    0.00000   0.00000
 Ionic relaxation
   EDIFFG = -.1E-01   stopping-criterion for IOM
   NSW    =      0    number of steps for IOM
   NBLOCK =      1;   KBLOCK =      1    inner block; outer block 
   IBRION =     -1    ionic relax: 0-MD 1-quasi-New 2-CG
   NFREE  =      0    steps in history (QN), initial steepest desc. (CG)
   ISIF   =      0    stress and relaxation
   IWAVPR =     10    prediction:  0-non 1-charg 2-wave 3-comb
   ISYM   =      3    0-nonsym 1-usesym 2-fastsym
   LCORR  =      T    Harris-Foulkes like correction to forces

   POTIM  = 0.0500    time-step for ionic-motion
   TEIN   =    0.0    initial temperature
   TEBEG  =    0.0;   TEEND  =   0.0 temperature during run
   SMASS  =  -3.00    Nose mass-parameter (am)
   estimated Nose-frequenzy (Omega)   =  0.10E-29 period in steps =****** mass=  -0.366E-27a.u.
   SCALEE = 1.0000    scale energy and forces
   NPACO  =    256;   APACO  = 16.0  distance and # of slots for P.C.
   PSTRESS=    0.0 pullay stress

  Mass of Ions in am
   POMASS =  19.00 47.88
  Ionic Valenz
   ZVAL   =   7.00 12.00
  Atomic Wigner-Seitz radii
   RWIGS  =  -1.00 -1.00
  virtual crystal weights 
   VCA    =   1.00  1.00
   NELECT =      33.0000    total number of electrons
   NUPDOWN=      -1.0000    fix difference up-down

 DOS related values:
   EMIN   =  10.00;   EMAX   =-10.00  energy-range for DOS
   EFERMI =   0.00
   ISMEAR =     0;   SIGMA  =   0.05  broadening in eV -4-tet -1-fermi 0-gaus

 Electronic relaxation 2 (details)
   IALGO  =     53    algorithm
   LDIAG  =      T    sub-space diagonalisation (order eigenvalues)
   LSUBROT=      F    optimize rotation matrix (better conditioning)
   TURBO    =      0    0=normal 1=particle mesh
   IRESTART =      0    0=no restart 2=restart with 2 vectors
   NREBOOT  =      0    no. of reboots
   NMIN     =      0    reboot dimension
   EREF     =   0.00    reference energy to select bands
   IMIX   =      4    mixing-type and parameters
     AMIX     =   0.10;   BMIX     =  1.20
     AMIX_MAG =   0.40;   BMIX_MAG =  1.20
     AMIN     =   0.10
     WC   =   100.;   INIMIX=   1;  MIXPRE=   1;  MAXMIX= -45

 Intra band minimization:
   WEIMIN = 0.0000     energy-eigenvalue tresh-hold
   EBREAK =  0.10E-05  absolut break condition
   DEPER  =   0.30     relativ break condition  

   TIME   =   0.40     timestep for ELM

  volume/ion in A,a.u.               =      16.03       108.17
  Fermi-wavevector in a.u.,A,eV,Ry     =   1.311956  2.479238 23.418747  1.721229
  Thomas-Fermi vector in A             =   2.442382
 
 Write flags
   LWAVE        =      F    write WAVECAR
   LDOWNSAMPLE  =      F    k-point downsampling of WAVECAR
   LCHARG       =      T    write CHGCAR
   LVTOT        =      F    write LOCPOT, total local potential
   LVHAR        =      F    write LOCPOT, Hartree potential only
   LELF         =      F    write electronic localiz. function (ELF)
   LORBIT       =     11    0 simple, 1 ext, 2 COOP (PROOUT), +10 PAW based schemes


 Dipole corrections
   LMONO  =      F    monopole corrections only (constant potential shift)
   LDIPOL =      F    correct potential (dipole corrections)
   IDIPOL =      0    1-x, 2-y, 3-z, 4-all directions 
   EPSILON=  1.0000000 bulk dielectric constant

 LDA+U is selected, type is set to LDAUTYPE =  2
   angular momentum for each species LDAUL =    -1    2
   U (eV)           for each species LDAUU =   0.0  4.4
   J (eV)           for each species LDAUJ =   0.0  0.0
 Exchange correlation treatment:
   GGA     =    --    GGA type
   LEXCH   =     8    internal setting for exchange type
   VOSKOWN=      0    Vosko Wilk Nusair interpolation
   EXXOEP  =     0    0=HF, 1=EXX-LHF (local Hartree Fock) 2=EXX OEP
   LHFCALC =     T    Hartree Fock is set to
   LSYMGRAD=     F    symmetrize gradient (conserves proper symmetry)
   PRECFOCK=normal    Normal, Fast or Accurate (Low or Medium for compatibility)
   LRHFCALC=     F    long range Hartree Fock
   LRSCOR  =     F    long range correlation only (use DFT for short range part)
   LTHOMAS =     F    Thomas Fermi screening in HF
   LMODELHF=     F    short range full HF, long range fraction AEXX
   ENCUT4O =  -1.0   cutoff for four orbital integrals eV
   LMAXFOCK=     4    L truncation for augmentation on plane wave grid
   LMAXFOCKAE=  -1    L truncation for all-electron charge restoration on plane wave grid
   NMAXFOCKAE=   1    number of basis functions for all-electron charge restoration
   LFOCKAEDFT=     F  apply the AE augmentation even for DFT
   NKREDX  =     1    reduce k-point grid by
   NKREDY  =     1    reduce k-point grid by
   NKREDZ  =     1    reduce k-point grid by
   SHIFTRED=     F    shift reduced grid of Gamma
   HFKIDENT=     F    idential grid for each k-point
   ODDONLY =     F    use only odd q-grid points
   EVENONLY=     F    use only even q-grid points
   HFALPHA =   -1.0000 decay constant for conv. correction
   MCALPHA =    0.0000 extent of test-charge in conv. correction in multipole expansion
   AEXX    =    0.2500 exact exchange contribution
   HFSCREEN=    0.2000 screening length (either q_TF or 0.3 A-1)
   HFSCREENC=   0.2000 screening length for correlation (either q_TF or 0.3 A-1)
   HFRCUT  =    0.0000 spherical cutoff for potential kernel
   ALDAX   =    0.7500 LDA exchange part
   AGGAX   =    0.7500 GGA exchange part
   ALDAC   =    1.0000 LDA correlation
   AGGAC   =    1.0000 GGA correlation
   ENCUTFOCK=  -1.0 apply spherical cutoff to Coloumb kernel
   NBANDSGWLOW=     1    first orbital included in HF term
   NBLOCK_FOCK=    64    blocking factor in FOCK_ACC
 Linear response parameters
   LEPSILON=     F    determine dielectric tensor
   LRPA    =     F    only Hartree local field effects (RPA)
   LNABLA  =     F    use nabla operator in PAW spheres
   LVEL    =     F    velocity operator in full k-point grid
   LINTERFAST=   F  fast interpolation
   KINTER  =     0    interpolate to denser k-point grid
   CSHIFT  =0.1000    complex shift for real part using Kramers Kronig
   OMEGAMAX=  -1.0    maximum frequency
   DEG_THRESHOLD= 0.2000000E-02 threshold for treating states as degnerate
   RTIME   =   -0.100 relaxation time in fs
  (WPLASMAI=    0.000 imaginary part of plasma frequency in eV, 0.658/RTIME)
   DFIELD  = 0.0000000 0.0000000 0.0000000 field for delta impulse in time
 
 Orbital magnetization related:
   ORBITALMAG=     F  switch on orbital magnetization
   LCHIMAG   =     F  perturbation theory with respect to B field
   DQ        =  0.001000  dq finite difference perturbation B field
   LLRAUG    =     F  two centre corrections for induced B field



--------------------------------------------------------------------------------------------------------


 Static calculation
 charge density and potential remain constant during run
 spin polarized calculation
 Conjugate gradient for all bands (Freysoldt, et al. PRB 79, 241103 (2009))
 perform sub-space diagonalisation
    before iterative eigenvector-optimisation
 no mixing
 using additional bands            7
 reciprocal scheme for non local part
 use partial core corrections
 calculate Harris-corrections to forces 
   (improved forces if not selfconsistent)
 use gradient corrections 
 WARNING: stress and forces are not correct
  (second derivative of E(xc) not defined)
 use of overlap-Matrix (Vanderbilt PP)
 Gauss-broadening in eV      SIGMA  =   0.05


--------------------------------------------------------------------------------------------------------


  energy-cutoff  :      520.00
  volume of cell :       64.12
      direct lattice vectors                 reciprocal lattice vectors
     4.002457941  0.000000000  0.000000000     0.249846473  0.000000000  0.000000000
     0.000000000  4.002457941  0.000000000     0.000000000  0.249846473  0.000000000
     0.000000000  0.000000000  4.002457941     0.000000000  0.000000000  0.249846473

  length of vectors
     4.002457941  4.002457941  4.002457941     0.249846473  0.249846473  0.249846473


 
 old parameters found on file WAVECAR:
  energy-cutoff  :      520.00
  volume of cell :       64.12
      direct lattice vectors                 reciprocal lattice vectors
     4.002457941  0.000000000  0.000000000     0.249846473  0.000000000  0.000000000
     0.000000000  4.002457941  0.000000000     0.000000000  0.249846473  0.000000000
     0.000000000  0.000000000  4.002457941     0.000000000  0.000000000  0.249846473

  length of vectors

 
 k-points in units of 2pi/SCALE and weight: 0.040   6   6   6   20  0.040  144    6 
   0.00000000  0.00000000  0.00000000       0.005
   0.04164108  0.00000000  0.00000000       0.028
   0.08328216  0.00000000  0.00000000       0.028
   0.12492324  0.00000000  0.00000000       0.014
   0.04164108  0.04164108  0.00000000       0.056
   0.08328216  0.04164108  0.00000000       0.111
   0.12492324  0.04164108  0.00000000       0.056
   0.08328216  0.08328216  0.00000000       0.056
   0.12492324  0.08328216  0.00000000       0.056
   0.12492324  0.12492324  0.00000000       0.014
   0.04164108  0.04164108  0.04164108       0.037
   0.08328216  0.04164108  0.04164108       0.111
   0.12492324  0.04164108  0.04164108       0.056
   0.08328216  0.08328216  0.04164108       0.111
   0.12492324  0.08328216  0.04164108       0.111
   0.12492324  0.12492324  0.04164108       0.028
   0.08328216  0.08328216  0.08328216       0.037
   0.12492324  0.08328216  0.08328216       0.056
   0.12492324  0.12492324  0.08328216       0.028
   0.12492324  0.12492324  0.12492324       0.005
   0.00000000  0.00000000  0.00000000       0.000
   0.00000000  0.00694018  0.00000000       0.000
   0.00000000  0.01388036  0.00000000       0.000
   0.00000000  0.02082054  0.00000000       0.000
   0.00000000  0.02776072  0.00000000       0.000
   0.00000000  0.03470090  0.00000000       0.000
   0.00000000  0.04164108  0.00000000       0.000
   0.00000000  0.04858126  0.00000000       0.000
   0.00000000  0.05552144  0.00000000       0.000
   0.00000000  0.06246162  0.00000000       0.000
   0.00000000  0.06940180  0.00000000       0.000
   0.00000000  0.07634198  0.00000000       0.000
   0.00000000  0.08328216  0.00000000       0.000
   0.00000000  0.09022234  0.00000000       0.000
   0.00000000  0.09716252  0.00000000       0.000
   0.00000000  0.10410270  0.00000000       0.000
   0.00000000  0.11104288  0.00000000       0.000
   0.00000000  0.11798306  0.00000000       0.000
   0.00000000  0.12492324  0.00000000       0.000
   0.00000000  0.12492324  0.00000000       0.000
   0.00694018  0.12492324  0.00000000       0.000
   0.01388036  0.12492324  0.00000000       0.000
   0.02082054  0.12492324  0.00000000       0.000
   0.02776072  0.12492324  0.00000000       0.000
   0.03470090  0.12492324  0.00000000       0.000
   0.04164108  0.12492324  0.00000000       0.000
   0.04858126  0.12492324  0.00000000       0.000
   0.05552144  0.12492324  0.00000000       0.000
   0.06246162  0.12492324  0.00000000       0.000
   0.06940180  0.12492324  0.00000000       0.000
   0.07634198  0.12492324  0.00000000       0.000
   0.08328216  0.12492324  0.00000000       0.000
   0.09022234  0.12492324  0.00000000       0.000
   0.09716252  0.12492324  0.00000000       0.000
   0.10410270  0.12492324  0.00000000       0.000
   0.11104288  0.12492324  0.00000000       0.000
   0.11798306  0.12492324  0.00000000       0.000
   0.12492324  0.12492324  0.00000000       0.000
   0.12492324  0.12492324  0.00000000       0.000
   0.12011850  0.12011850  0.00000000       0.000
   0.11531376  0.11531376  0.00000000       0.000
   0.11050902  0.11050902  0.00000000       0.000
   0.10570428  0.10570428  0.00000000       0.000
   0.10089954  0.10089954  0.00000000       0.000
   0.09609480  0.09609480  0.00000000       0.000
   0.09129006  0.09129006  0.00000000       0.000
   0.08648532  0.08648532  0.00000000       0.000
   0.08168058  0.08168058  0.00000000       0.000
   0.07687584  0.07687584  0.00000000       0.000
   0.07207110  0.07207110  0.00000000       0.000
   0.06726636  0.06726636  0.00000000       0.000
   0.06246162  0.06246162  0.00000000       0.000
   0.05765688  0.05765688  0.00000000       0.000
   0.05285214  0.05285214  0.00000000       0.000
   0.04804740  0.04804740  0.00000000       0.000
   0.04324266  0.04324266  0.00000000       0.000
   0.03843792  0.03843792  0.00000000       0.000
   0.03363318  0.03363318  0.00000000       0.000
   0.02882844  0.02882844  0.00000000       0.000
   0.02402370  0.02402370  0.00000000       0.000
   0.01921896  0.01921896  0.00000000       0.000
   0.01441422  0.01441422  0.00000000       0.000
   0.00960948  0.00960948  0.00000000       0.000
   0.00480474  0.00480474  0.00000000       0.000
   0.00000000  0.00000000  0.00000000       0.000
   0.00000000  0.00000000  0.00000000       0.000
   0.00390385  0.00390385  0.00390385       0.000
   0.00780770  0.00780770  0.00780770       0.000
   0.01171155  0.01171155  0.01171155       0.000
   0.01561540  0.01561540  0.01561540       0.000
   0.01951926  0.01951926  0.01951926       0.000
   0.02342311  0.02342311  0.02342311       0.000
   0.02732696  0.02732696  0.02732696       0.000
   0.03123081  0.03123081  0.03123081       0.000
   0.03513466  0.03513466  0.03513466       0.000
   0.03903851  0.03903851  0.03903851       0.000
   0.04294236  0.04294236  0.04294236       0.000
   0.04684621  0.04684621  0.04684621       0.000
   0.05075006  0.05075006  0.05075006       0.000
   0.05465392  0.05465392  0.05465392       0.000
   0.05855777  0.05855777  0.05855777       0.000
   0.06246162  0.06246162  0.06246162       0.000
   0.06636547  0.06636547  0.06636547       0.000
   0.07026932  0.07026932  0.07026932       0.000
   0.07417317  0.07417317  0.07417317       0.000
   0.07807702  0.07807702  0.07807702       0.000
   0.08198087  0.08198087  0.08198087       0.000
   0.08588473  0.08588473  0.08588473       0.000
   0.08978858  0.08978858  0.08978858       0.000
   0.09369243  0.09369243  0.09369243       0.000
   0.09759628  0.09759628  0.09759628       0.000
   0.10150013  0.10150013  0.10150013       0.000
   0.10540398  0.10540398  0.10540398       0.000
   0.10930783  0.10930783  0.10930783       0.000
   0.11321168  0.11321168  0.11321168       0.000
   0.11711553  0.11711553  0.11711553       0.000
   0.12101939  0.12101939  0.12101939       0.000
   0.12492324  0.12492324  0.12492324       0.000
   0.12492324  0.12492324  0.12492324       0.000
   0.12011850  0.12492324  0.12011850       0.000
   0.11531376  0.12492324  0.11531376       0.000
   0.11050902  0.12492324  0.11050902       0.000
   0.10570428  0.12492324  0.10570428       0.000
   0.10089954  0.12492324  0.10089954       0.000
   0.09609480  0.12492324  0.09609480       0.000
   0.09129006  0.12492324  0.09129006       0.000
   0.08648532  0.12492324  0.08648532       0.000
   0.08168058  0.12492324  0.08168058       0.000
   0.07687584  0.12492324  0.07687584       0.000
   0.07207110  0.12492324  0.07207110       0.000
   0.06726636  0.12492324  0.06726636       0.000
   0.06246162  0.12492324  0.06246162       0.000
   0.05765688  0.12492324  0.05765688       0.000
   0.05285214  0.12492324  0.05285214       0.000
   0.04804740  0.12492324  0.04804740       0.000
   0.04324266  0.12492324  0.04324266       0.000
   0.03843792  0.12492324  0.03843792       0.000
   0.03363318  0.12492324  0.03363318       0.000
   0.02882844  0.12492324  0.02882844       0.000
   0.02402370  0.12492324  0.02402370       0.000
   0.01921896  0.12492324  0.01921896       0.000
   0.01441422  0.12492324  0.01441422       0.000
   0.00960948  0.12492324  0.00960948       0.000
   0.00480474  0.12492324  0.00480474       0.000
   0.00000000  0.12492324  0.00000000       0.000
   0.12492324  0.12492324  0.12492324       0.000
   0.12492324  0.12492324  0.11798306       0.000
   0.12492324  0.12492324  0.11104288       0.000
   0.12492324  0.12492324  0.10410270       0.000
   0.12492324  0.12492324  0.09716252       0.000
   0.12492324  0.12492324  0.09022234       0.000
   0.12492324  0.12492324  0.08328216       0.000
   0.12492324  0.12492324  0.07634198       0.000
   0.12492324  0.12492324  0.06940180       0.000
   0.12492324  0.12492324  0.06246162       0.000
   0.12492324  0.12492324  0.05552144       0.000
   0.12492324  0.12492324  0.04858126       0.000
   0.12492324  0.12492324  0.04164108       0.000
   0.12492324  0.12492324  0.03470090       0.000
   0.12492324  0.12492324  0.02776072       0.000
   0.12492324  0.12492324  0.02082054       0.000
   0.12492324  0.12492324  0.01388036       0.000
   0.12492324  0.12492324  0.00694018       0.000
   0.12492324  0.12492324  0.00000000       0.000
 
 k-points in reciprocal lattice and weights: 0.040   6   6   6   20  0.040  144    6 
   0.00000000  0.00000000  0.00000000       0.005
   0.16666667  0.00000000  0.00000000       0.028
   0.33333333  0.00000000  0.00000000       0.028
   0.50000000  0.00000000  0.00000000       0.014
   0.16666667  0.16666667  0.00000000       0.056
   0.33333333  0.16666667  0.00000000       0.111
   0.50000000  0.16666667  0.00000000       0.056
   0.33333333  0.33333333  0.00000000       0.056
   0.50000000  0.33333333  0.00000000       0.056
   0.50000000  0.50000000  0.00000000       0.014
   0.16666667  0.16666667  0.16666667       0.037
   0.33333333  0.16666667  0.16666667       0.111
   0.50000000  0.16666667  0.16666667       0.056
   0.33333333  0.33333333  0.16666667       0.111
   0.50000000  0.33333333  0.16666667       0.111
   0.50000000  0.50000000  0.16666667       0.028
   0.33333333  0.33333333  0.33333333       0.037
   0.50000000  0.33333333  0.33333333       0.056
   0.50000000  0.50000000  0.33333333       0.028
   0.50000000  0.50000000  0.50000000       0.005
   0.00000000  0.00000000  0.00000000       0.000
   0.00000000  0.02777778  0.00000000       0.000
   0.00000000  0.05555556  0.00000000       0.000
   0.00000000  0.08333333  0.00000000       0.000
   0.00000000  0.11111111  0.00000000       0.000
   0.00000000  0.13888889  0.00000000       0.000
   0.00000000  0.16666667  0.00000000       0.000
   0.00000000  0.19444444  0.00000000       0.000
   0.00000000  0.22222222  0.00000000       0.000
   0.00000000  0.25000000  0.00000000       0.000
   0.00000000  0.27777778  0.00000000       0.000
   0.00000000  0.30555556  0.00000000       0.000
   0.00000000  0.33333333  0.00000000       0.000
   0.00000000  0.36111111  0.00000000       0.000
   0.00000000  0.38888889  0.00000000       0.000
   0.00000000  0.41666667  0.00000000       0.000
   0.00000000  0.44444444  0.00000000       0.000
   0.00000000  0.47222222  0.00000000       0.000
   0.00000000  0.50000000  0.00000000       0.000
   0.00000000  0.50000000  0.00000000       0.000
   0.02777778  0.50000000  0.00000000       0.000
   0.05555556  0.50000000  0.00000000       0.000
   0.08333333  0.50000000  0.00000000       0.000
   0.11111111  0.50000000  0.00000000       0.000
   0.13888889  0.50000000  0.00000000       0.000
   0.16666667  0.50000000  0.00000000       0.000
   0.19444444  0.50000000  0.00000000       0.000
   0.22222222  0.50000000  0.00000000       0.000
   0.25000000  0.50000000  0.00000000       0.000
   0.27777778  0.50000000  0.00000000       0.000
   0.30555556  0.50000000  0.00000000       0.000
   0.33333333  0.50000000  0.00000000       0.000
   0.36111111  0.50000000  0.00000000       0.000
   0.38888889  0.50000000  0.00000000       0.000
   0.41666667  0.50000000  0.00000000       0.000
   0.44444444  0.50000000  0.00000000       0.000
   0.47222222  0.50000000  0.00000000       0.000
   0.50000000  0.50000000  0.00000000       0.000
   0.50000000  0.50000000  0.00000000       0.000
   0.48076923  0.48076923  0.00000000       0.000
   0.46153846  0.46153846  0.00000000       0.000
   0.44230769  0.44230769  0.00000000       0.000
   0.42307692  0.42307692  0.00000000       0.000
   0.40384615  0.40384615  0.00000000       0.000
   0.38461538  0.38461538  0.00000000       0.000
   0.36538462  0.36538462  0.00000000       0.000
   0.34615385  0.34615385  0.00000000       0.000
   0.32692308  0.32692308  0.00000000       0.000
   0.30769231  0.30769231  0.00000000       0.000
   0.28846154  0.28846154  0.00000000       0.000
   0.26923077  0.26923077  0.00000000       0.000
   0.25000000  0.25000000  0.00000000       0.000
   0.23076923  0.23076923  0.00000000       0.000
   0.21153846  0.21153846  0.00000000       0.000
   0.19230769  0.19230769  0.00000000       0.000
   0.17307692  0.17307692  0.00000000       0.000
   0.15384615  0.15384615  0.00000000       0.000
   0.13461538  0.13461538  0.00000000       0.000
   0.11538462  0.11538462  0.00000000       0.000
   0.09615385  0.09615385  0.00000000       0.000
   0.07692308  0.07692308  0.00000000       0.000
   0.05769231  0.05769231  0.00000000       0.000
   0.03846154  0.03846154  0.00000000       0.000
   0.01923077  0.01923077  0.00000000       0.000
   0.00000000  0.00000000  0.00000000       0.000
   0.00000000  0.00000000  0.00000000       0.000
   0.01562500  0.01562500  0.01562500       0.000
   0.03125000  0.03125000  0.03125000       0.000
   0.04687500  0.04687500  0.04687500       0.000
   0.06250000  0.06250000  0.06250000       0.000
   0.07812500  0.07812500  0.07812500       0.000
   0.09375000  0.09375000  0.09375000       0.000
   0.10937500  0.10937500  0.10937500       0.000
   0.12500000  0.12500000  0.12500000       0.000
   0.14062500  0.14062500  0.14062500       0.000
   0.15625000  0.15625000  0.15625000       0.000
   0.17187500  0.17187500  0.17187500       0.000
   0.18750000  0.18750000  0.18750000       0.000
   0.20312500  0.20312500  0.20312500       0.000
   0.21875000  0.21875000  0.21875000       0.000
   0.23437500  0.23437500  0.23437500       0.000
   0.25000000  0.25000000  0.25000000       0.000
   0.26562500  0.26562500  0.26562500       0.000
   0.28125000  0.28125000  0.28125000       0.000
   0.29687500  0.29687500  0.29687500       0.000
   0.31250000  0.31250000  0.31250000       0.000
   0.32812500  0.32812500  0.32812500       0.000
   0.34375000  0.34375000  0.34375000       0.000
   0.35937500  0.35937500  0.35937500       0.000
   0.37500000  0.37500000  0.37500000       0.000
   0.39062500  0.39062500  0.39062500       0.000
   0.40625000  0.40625000  0.40625000       0.000
   0.42187500  0.42187500  0.42187500       0.000
   0.43750000  0.43750000  0.43750000       0.000
   0.45312500  0.45312500  0.45312500       0.000
   0.46875000  0.46875000  0.46875000       0.000
   0.48437500  0.48437500  0.48437500       0.000
   0.50000000  0.50000000  0.50000000       0.000
   0.50000000  0.50000000  0.50000000       0.000
   0.48076923  0.50000000  0.48076923       0.000
   0.46153846  0.50000000  0.46153846       0.000
   0.44230769  0.50000000  0.44230769       0.000
   0.42307692  0.50000000  0.42307692       0.000
   0.40384615  0.50000000  0.40384615       0.000
   0.38461538  0.50000000  0.38461538       0.000
   0.36538462  0.50000000  0.36538462       0.000
   0.34615385  0.50000000  0.34615385       0.000
   0.32692308  0.50000000  0.32692308       0.000
   0.30769231  0.50000000  0.30769231       0.000
   0.28846154  0.50000000  0.28846154       0.000
   0.26923077  0.50000000  0.26923077       0.000
   0.25000000  0.50000000  0.25000000       0.000
   0.23076923  0.50000000  0.23076923       0.000
   0.21153846  0.50000000  0.21153846       0.000
   0.19230769  0.50000000  0.19230769       0.000
   0.17307692  0.50000000  0.17307692       0.000
   0.15384615  0.50000000  0.15384615       0.000
   0.13461538  0.50000000  0.13461538       0.000
   0.11538462  0.50000000  0.11538462       0.000
   0.09615385  0.50000000  0.09615385       0.000
   0.07692308  0.50000000  0.07692308       0.000
   0.05769231  0.50000000  0.05769231       0.000
   0.03846154  0.50000000  0.03846154       0.000
   0.01923077  0.50000000  0.01923077       0.000
   0.00000000  0.50000000  0.00000000       0.000
   0.50000000  0.50000000  0.50000000       0.000
   0.50000000  0.50000000  0.47222222       0.000
   0.50000000  0.50000000  0.44444444       0.000
   0.50000000  0.50000000  0.41666667       0.000
   0.50000000  0.50000000  0.38888889       0.000
   0.50000000  0.50000000  0.36111111       0.000
   0.50000000  0.50000000  0.33333333       0.000
   0.50000000  0.50000000  0.30555556       0.000
   0.50000000  0.50000000  0.27777778       0.000
   0.50000000  0.50000000  0.25000000       0.000
   0.50000000  0.50000000  0.22222222       0.000
   0.50000000  0.50000000  0.19444444       0.000
   0.50000000  0.50000000  0.16666667       0.000
   0.50000000  0.50000000  0.13888889       0.000
   0.50000000  0.50000000  0.11111111       0.000
   0.50000000  0.50000000  0.08333333       0.000
   0.50000000  0.50000000  0.05555556       0.000
   0.50000000  0.50000000  0.02777778       0.000
   0.50000000  0.50000000  0.00000000       0.000
 
 position of ions in fractional coordinates (direct lattice) 
   0.00000000  0.00000000  0.50000000
   0.00000000  0.50000000  0.00000000
   0.50000000  0.00000000  0.00000000
   0.00000000  0.00000000  0.00000000
 
 position of ions in cartesian coordinates  (Angst):
   0.00000000  0.00000000  2.00122897
   0.00000000  2.00122897  0.00000000
   2.00122897  0.00000000  0.00000000
   0.00000000  0.00000000  0.00000000
 


--------------------------------------------------------------------------------------------------------


 k-point  1 :   0.0000 0.0000 0.0000  plane waves:    1743
 k-point  2 :   0.1667 0.0000 0.0000  plane waves:    1755
 k-point  3 :   0.3333 0.0000 0.0000  plane waves:    1727
 k-point  4 :   0.5000 0.0000 0.0000  plane waves:    1750
 k-point  5 :   0.1667 0.1667 0.0000  plane waves:    1727
 k-point  6 :   0.3333 0.1667 0.0000  plane waves:    1725
 k-point  7 :   0.5000 0.1667 0.0000  plane waves:    1728
 k-point  8 :   0.3333 0.3333 0.0000  plane waves:    1734
 k-point  9 :   0.5000 0.3333 0.0000  plane waves:    1714
 k-point 10 :   0.5000 0.5000 0.0000  plane waves:    1692
 k-point 11 :   0.1667 0.1667 0.1667  plane waves:    1719
 k-point 12 :   0.3333 0.1667 0.1667  plane waves:    1728
 k-point 13 :   0.5000 0.1667 0.1667  plane waves:    1734
 k-point 14 :   0.3333 0.3333 0.1667  plane waves:    1727
 k-point 15 :   0.5000 0.3333 0.1667  plane waves:    1712
 k-point 16 :   0.5000 0.5000 0.1667  plane waves:    1724
 k-point 17 :   0.3333 0.3333 0.3333  plane waves:    1721
 k-point 18 :   0.5000 0.3333 0.3333  plane waves:    1718
 k-point 19 :   0.5000 0.5000 0.3333  plane waves:    1724
 k-point 20 :   0.5000 0.5000 0.5000  plane waves:    1736
 k-point 21 :   0.0000 0.0000 0.0000  plane waves:    1743
 k-point 22 :   0.0000 0.0278 0.0000  plane waves:    1743
 k-point 23 :   0.0000 0.0556 0.0000  plane waves:    1751
 k-point 24 :   0.0000 0.0833 0.0000  plane waves:    1759
 k-point 25 :   0.0000 0.1111 0.0000  plane waves:    1751
 k-point 26 :   0.0000 0.1389 0.0000  plane waves:    1743
 k-point 27 :   0.0000 0.1667 0.0000  plane waves:    1755
 k-point 28 :   0.0000 0.1944 0.0000  plane waves:    1755
 k-point 29 :   0.0000 0.2222 0.0000  plane waves:    1747
 k-point 30 :   0.0000 0.2500 0.0000  plane waves:    1747
 k-point 31 :   0.0000 0.2778 0.0000  plane waves:    1751
 k-point 32 :   0.0000 0.3056 0.0000  plane waves:    1743
 k-point 33 :   0.0000 0.3333 0.0000  plane waves:    1727
 k-point 34 :   0.0000 0.3611 0.0000  plane waves:    1727
 k-point 35 :   0.0000 0.3889 0.0000  plane waves:    1731
 k-point 36 :   0.0000 0.4167 0.0000  plane waves:    1727
 k-point 37 :   0.0000 0.4444 0.0000  plane waves:    1718
 k-point 38 :   0.0000 0.4722 0.0000  plane waves:    1726
 k-point 39 :   0.0000 0.5000 0.0000  plane waves:    1750
 k-point 40 :   0.0000 0.5000 0.0000  plane waves:    1750
 k-point 41 :   0.0278 0.5000 0.0000  plane waves:    1730
 k-point 42 :   0.0556 0.5000 0.0000  plane waves:    1722
 k-point 43 :   0.0833 0.5000 0.0000  plane waves:    1728
 k-point 44 :   0.1111 0.5000 0.0000  plane waves:    1732
 k-point 45 :   0.1389 0.5000 0.0000  plane waves:    1728
 k-point 46 :   0.1667 0.5000 0.0000  plane waves:    1728
 k-point 47 :   0.1944 0.5000 0.0000  plane waves:    1724
 k-point 48 :   0.2222 0.5000 0.0000  plane waves:    1720
 k-point 49 :   0.2500 0.5000 0.0000  plane waves:    1724
 k-point 50 :   0.2778 0.5000 0.0000  plane waves:    1712
 k-point 51 :   0.3056 0.5000 0.0000  plane waves:    1710
 k-point 52 :   0.3333 0.5000 0.0000  plane waves:    1714
 k-point 53 :   0.3611 0.5000 0.0000  plane waves:    1710
 k-point 54 :   0.3889 0.5000 0.0000  plane waves:    1700
 k-point 55 :   0.4167 0.5000 0.0000  plane waves:    1704
 k-point 56 :   0.4444 0.5000 0.0000  plane waves:    1708
 k-point 57 :   0.4722 0.5000 0.0000  plane waves:    1708
 k-point 58 :   0.5000 0.5000 0.0000  plane waves:    1692
 k-point 59 :   0.5000 0.5000 0.0000  plane waves:    1692
 k-point 60 :   0.4808 0.4808 0.0000  plane waves:    1704
 k-point 61 :   0.4615 0.4615 0.0000  plane waves:    1716
 k-point 62 :   0.4423 0.4423 0.0000  plane waves:    1710
 k-point 63 :   0.4231 0.4231 0.0000  plane waves:    1710
 k-point 64 :   0.4038 0.4038 0.0000  plane waves:    1712
 k-point 65 :   0.3846 0.3846 0.0000  plane waves:    1716
 k-point 66 :   0.3654 0.3654 0.0000  plane waves:    1716
 k-point 67 :   0.3462 0.3462 0.0000  plane waves:    1726
 k-point 68 :   0.3269 0.3269 0.0000  plane waves:    1734
 k-point 69 :   0.3077 0.3077 0.0000  plane waves:    1728
 k-point 70 :   0.2885 0.2885 0.0000  plane waves:    1728
 k-point 71 :   0.2692 0.2692 0.0000  plane waves:    1732
 k-point 72 :   0.2500 0.2500 0.0000  plane waves:    1735
 k-point 73 :   0.2308 0.2308 0.0000  plane waves:    1727
 k-point 74 :   0.2115 0.2115 0.0000  plane waves:    1749
 k-point 75 :   0.1923 0.1923 0.0000  plane waves:    1749
 k-point 76 :   0.1731 0.1731 0.0000  plane waves:    1739
 k-point 77 :   0.1538 0.1538 0.0000  plane waves:    1737
 k-point 78 :   0.1346 0.1346 0.0000  plane waves:    1737
 k-point 79 :   0.1154 0.1154 0.0000  plane waves:    1745
 k-point 80 :   0.0962 0.0962 0.0000  plane waves:    1753
 k-point 81 :   0.0769 0.0769 0.0000  plane waves:    1745
 k-point 82 :   0.0577 0.0577 0.0000  plane waves:    1755
 k-point 83 :   0.0385 0.0385 0.0000  plane waves:    1747
 k-point 84 :   0.0192 0.0192 0.0000  plane waves:    1743
 k-point 85 :   0.0000 0.0000 0.0000  plane waves:    1743
 k-point 86 :   0.0000 0.0000 0.0000  plane waves:    1743
 k-point 87 :   0.0156 0.0156 0.0156  plane waves:    1743
 k-point 88 :   0.0312 0.0312 0.0312  plane waves:    1749
 k-point 89 :   0.0469 0.0469 0.0469  plane waves:    1755
 k-point 90 :   0.0625 0.0625 0.0625  plane waves:    1749
 k-point 91 :   0.0781 0.0781 0.0781  plane waves:    1749
 k-point 92 :   0.0938 0.0938 0.0938  plane waves:    1746
 k-point 93 :   0.1094 0.1094 0.1094  plane waves:    1740
 k-point 94 :   0.1250 0.1250 0.1250  plane waves:    1734
 k-point 95 :   0.1406 0.1406 0.1406  plane waves:    1728
 k-point 96 :   0.1562 0.1562 0.1562  plane waves:    1731
 k-point 97 :   0.1719 0.1719 0.1719  plane waves:    1731
 k-point 98 :   0.1875 0.1875 0.1875  plane waves:    1731
 k-point 99 :   0.2031 0.2031 0.2031  plane waves:    1728
 k-point ** :   0.2188 0.2188 0.2188  plane waves:    1728
 k-point ** :   0.2344 0.2344 0.2344  plane waves:    1722
 k-point ** :   0.2500 0.2500 0.2500  plane waves:    1722
 k-point ** :   0.2656 0.2656 0.2656  plane waves:    1725
 k-point ** :   0.2812 0.2812 0.2812  plane waves:    1722
 k-point ** :   0.2969 0.2969 0.2969  plane waves:    1721
 k-point ** :   0.3125 0.3125 0.3125  plane waves:    1721
 k-point ** :   0.3281 0.3281 0.3281  plane waves:    1721
 k-point ** :   0.3438 0.3438 0.3438  plane waves:    1715
 k-point ** :   0.3594 0.3594 0.3594  plane waves:    1721
 k-point ** :   0.3750 0.3750 0.3750  plane waves:    1721
 k-point ** :   0.3906 0.3906 0.3906  plane waves:    1733
 k-point ** :   0.4062 0.4062 0.4062  plane waves:    1733
 k-point ** :   0.4219 0.4219 0.4219  plane waves:    1718
 k-point ** :   0.4375 0.4375 0.4375  plane waves:    1718
 k-point ** :   0.4531 0.4531 0.4531  plane waves:    1718
 k-point ** :   0.4688 0.4688 0.4688  plane waves:    1724
 k-point ** :   0.4844 0.4844 0.4844  plane waves:    1736
 k-point ** :   0.5000 0.5000 0.5000  plane waves:    1736
 k-point ** :   0.5000 0.5000 0.5000  plane waves:    1736
 k-point ** :   0.4808 0.5000 0.4808  plane waves:    1736
 k-point ** :   0.4615 0.5000 0.4615  plane waves:    1724
 k-point ** :   0.4423 0.5000 0.4423  plane waves:    1714
 k-point ** :   0.4231 0.5000 0.4231  plane waves:    1720
 k-point ** :   0.4038 0.5000 0.4038  plane waves:    1724
 k-point ** :   0.3846 0.5000 0.3846  plane waves:    1724
 k-point ** :   0.3654 0.5000 0.3654  plane waves:    1720
 k-point ** :   0.3462 0.5000 0.3462  plane waves:    1722
 k-point ** :   0.3269 0.5000 0.3269  plane waves:    1718
 k-point ** :   0.3077 0.5000 0.3077  plane waves:    1718
 k-point ** :   0.2885 0.5000 0.2885  plane waves:    1718
 k-point ** :   0.2692 0.5000 0.2692  plane waves:    1714
 k-point ** :   0.2500 0.5000 0.2500  plane waves:    1728
 k-point ** :   0.2308 0.5000 0.2308  plane waves:    1724
 k-point ** :   0.2115 0.5000 0.2115  plane waves:    1724
 k-point ** :   0.1923 0.5000 0.1923  plane waves:    1724
 k-point ** :   0.1731 0.5000 0.1731  plane waves:    1734
 k-point ** :   0.1538 0.5000 0.1538  plane waves:    1740
 k-point ** :   0.1346 0.5000 0.1346  plane waves:    1728
 k-point ** :   0.1154 0.5000 0.1154  plane waves:    1736
 k-point ** :   0.0962 0.5000 0.0962  plane waves:    1728
 k-point ** :   0.0769 0.5000 0.0769  plane waves:    1728
 k-point ** :   0.0577 0.5000 0.0577  plane waves:    1728
 k-point ** :   0.0385 0.5000 0.0385  plane waves:    1726
 k-point ** :   0.0192 0.5000 0.0192  plane waves:    1726
 k-point ** :   0.0000 0.5000 0.0000  plane waves:    1750
 k-point ** :   0.5000 0.5000 0.5000  plane waves:    1736
 k-point ** :   0.5000 0.5000 0.4722  plane waves:    1736
 k-point ** :   0.5000 0.5000 0.4444  plane waves:    1724
 k-point ** :   0.5000 0.5000 0.4167  plane waves:    1720
 k-point ** :   0.5000 0.5000 0.3889  plane waves:    1716
 k-point ** :   0.5000 0.5000 0.3611  plane waves:    1716
 k-point ** :   0.5000 0.5000 0.3333  plane waves:    1724
 k-point ** :   0.5000 0.5000 0.3056  plane waves:    1724
 k-point ** :   0.5000 0.5000 0.2778  plane waves:    1732
 k-point ** :   0.5000 0.5000 0.2500  plane waves:    1732
 k-point ** :   0.5000 0.5000 0.2222  plane waves:    1732
 k-point ** :   0.5000 0.5000 0.1944  plane waves:    1724
 k-point ** :   0.5000 0.5000 0.1667  plane waves:    1724
 k-point ** :   0.5000 0.5000 0.1389  plane waves:    1712
 k-point ** :   0.5000 0.5000 0.1111  plane waves:    1716
 k-point ** :   0.5000 0.5000 0.0833  plane waves:    1708
 k-point ** :   0.5000 0.5000 0.0556  plane waves:    1708
 k-point ** :   0.5000 0.5000 0.0278  plane waves:    1708
 k-point ** :   0.5000 0.5000 0.0000  plane waves:    1692

 maximum and minimum number of plane-waves per node :       232      196

 maximum number of plane-waves:      1759
 maximum index in each direction: 
   IXMAX=    7   IYMAX=    7   IZMAX=    7
   IXMIN=   -7   IYMIN=   -7   IZMIN=   -7


 parallel 3D FFT for wavefunctions:
    minimum data exchange during FFTs selected (reduces bandwidth)
 parallel 3D FFT for charge:
    minimum data exchange during FFTs selected (reduces bandwidth)


 FFT grid for exact exchange (Hartree Fock) 
  NGX = 24; NGY = 24; NGZ = 24

 
 Radii for the augmentation spheres in the non-local exchange
 for species   1 augmentation radius   0.896 (default was   0.717)
       energy cutoff for augmentation   2080.0
 for species   2 augmentation radius   1.300 (default was   1.040)
       energy cutoff for augmentation   2080.0

 real space projection operators:
  total allocation   :        508.50 KBytes
  max/ min on nodes  :         70.18         53.85

 Maximum index for augmentation-charges in exchange          185
  SETUP_FOCK is finished

 total amount of memory used by VASP MPI-rank0    55415. kBytes
=======================================================================

   base      :      30000. kBytes
   nonl-proj :      11351. kBytes
   fftplans  :        753. kBytes
   grid      :        587. kBytes
   one-center:         31. kBytes
   HF        :         23. kBytes
   nonlr-proj:        202. kBytes
   wavefun   :      12468. kBytes
 
     INWAV:  cpu time    1.1575: real time    1.1580
 initial charge density was supplied:
 number of electron      33.0000001 magnetization       1.0045046
 keeping initial charge density in first step


--------------------------------------------------------------------------------------------------------


 Maximum index for augmentation-charges         3061 (set IRDMAX)


--------------------------------------------------------------------------------------------------------


 First call to EWALD:  gamma=   0.443
 Maximum number of real-space cells 3x 3x 3
 Maximum number of reciprocal cells 3x 3x 3

    FEWALD:  cpu time    0.0016: real time    0.0016


--------------------------------------- Iteration      1(   1)  ---------------------------------------


    POTLOK:  cpu time    0.0260: real time    0.0274
    SETDIJ:  cpu time    0.1167: real time    0.1168
    TRIAL :  cpu time  314.4107: real time  314.4647
    CORREC:  cpu time    0.0013: real time    0.0013
    --------------------------------------------
      LOOP:  cpu time  314.5592: real time  314.6153

 eigenvalue-minimisations  :     0
 total energy-change (2. order) :-0.3041066E+02  (-0.1387634E+00)
 number of electron      33.0000001 magnetization       1.0045046
 augmentation part       33.0000001 magnetization       1.0045046

 Free energy of the ion-electron system (eV)
  ---------------------------------------------------
  alpha Z        PSCENC =        81.38125666
  Ewald energy   TEWEN  =     -1880.29345068
  -Hartree energ DENC   =     -1444.26435894
  -exchange      EXHF   =       114.64324389
  -V(xc)+E(xc)   XCENC  =       133.11231942
  PAW double counting   =      3421.93646840    -3410.46084832
  entropy T*S    EENTRO =        -0.00366303
  eigenvalues    EBANDS =      -602.12061406
  atomic energy  EATOM  =      3555.65902177
  ---------------------------------------------------
  free energy    TOTEN  =       -30.41066350 eV

  energy without entropy =      -30.40700048  energy(sigma->0) =      -30.40883199
  exchange ACFDT corr.  =        -0.01114797  see jH, gK, PRB 81, 115126


--------------------------------------------------------------------------------------------------------




[...]
     20       8.5415      0.00000
     21       9.0531      0.00000
     22       9.7185      0.00000
     23      11.8432      0.00000
     24      12.4529      0.00000

 k-point   153 :       0.5000    0.5000    0.3056
  band No.  band energies     occupation 
      1     -60.7281      1.00000
      2     -35.4741      1.00000
      3     -35.4741      1.00000
      4     -35.4254      1.00000
      5     -25.9171      1.00000
      6     -25.7667      1.00000
      7     -25.7667      1.00000
      8      -8.1299      1.00000
      9      -7.4470      1.00000
     10      -7.1819      1.00000
     11      -6.8789      1.00000
     12      -6.6585      1.00000
     13      -6.6585      1.00000
     14      -4.9216      1.00000
     15      -4.9216      1.00000
     16      -4.7604      1.00000
     17       6.8296      0.00000
     18       6.8296      0.00000
     19       7.0127      0.00000
     20       8.3812      0.00000
     21       9.0525      0.00000
     22       9.7544      0.00000
     23      11.6532      0.00000
     24      12.2959      0.00000

 k-point   154 :       0.5000    0.5000    0.2778
  band No.  band energies     occupation 
      1     -60.7282      1.00000
      2     -35.4743      1.00000
      3     -35.4743      1.00000
      4     -35.4130      1.00000
      5     -25.9559      1.00000
      6     -25.7673      1.00000
      7     -25.7673      1.00000
      8      -8.1050      1.00000
      9      -7.4476      1.00000
     10      -7.0989      1.00000
     11      -6.8826      1.00000
     12      -6.5982      1.00000
     13      -6.5982      1.00000
     14      -4.9711      1.00000
     15      -4.9711      1.00000
     16      -4.7608      1.00000
     17       6.7742      0.00000
     18       6.7742      0.00000
     19       7.0031      0.00000
     20       8.2122      0.00000
     21       9.0518      0.00000
     22       9.7888      0.00000
     23      11.4824      0.00000
     24      12.1251      0.00000

 k-point   155 :       0.5000    0.5000    0.2500
  band No.  band energies     occupation 
      1     -60.7283      1.00000
      2     -35.4746      1.00000
      3     -35.4746      1.00000
      4     -35.4002      1.00000
      5     -25.9957      1.00000
      6     -25.7678      1.00000
      7     -25.7678      1.00000
      8      -8.0833      1.00000
      9      -7.4482      1.00000
     10      -7.0078      1.00000
     11      -6.8864      1.00000
     12      -6.5315      1.00000
     13      -6.5315      1.00000
     14      -5.0267      1.00000
     15      -5.0267      1.00000
     16      -4.7612      1.00000
     17       6.7179      0.00000
     18       6.7179      0.00000
     19       6.9935      0.00000
     20       8.0372      0.00000
     21       9.0512      0.00000
     22       9.8253      0.00000
     23      11.3307      0.00000
     24      11.9471      0.00000

 k-point   156 :       0.5000    0.5000    0.2222
  band No.  band energies     occupation 
      1     -60.7285      1.00000
      2     -35.4749      1.00000
      3     -35.4749      1.00000
      4     -35.3874      1.00000
      5     -26.0354      1.00000
      6     -25.7683      1.00000
      7     -25.7683      1.00000
      8      -8.0651      1.00000
      9      -7.4487      1.00000
     10      -6.9116      1.00000
     11      -6.8903      1.00000
     12      -6.4589      1.00000
     13      -6.4589      1.00000
     14      -5.0883      1.00000
     15      -5.0883      1.00000
     16      -4.7616      1.00000
     17       6.6623      0.00000
     18       6.6623      0.00000
     19       6.9841      0.00000
     20       7.8623      0.00000
     21       9.0506      0.00000
     22       9.8607      0.00000
     23      11.1853      0.00000
     24      11.7716      0.00000

 k-point   157 :       0.5000    0.5000    0.1944
  band No.  band energies     occupation 
      1     -60.7286      1.00000
      2     -35.4752      1.00000
      3     -35.4752      1.00000
      4     -35.3748      1.00000
      5     -26.0738      1.00000
      6     -25.7688      1.00000
      7     -25.7688      1.00000
      8      -8.0502      1.00000
      9      -7.4493      1.00000
     10      -6.8939      1.00000
     11      -6.8140      1.00000
     12      -6.3810      1.00000
     13      -6.3810      1.00000
     14      -5.1555      1.00000
     15      -5.1555      1.00000
     16      -4.7620      1.00000
     17       6.6093      0.00000
     18       6.6093      0.00000
     19       6.9754      0.00000
     20       7.6925      0.00000
     21       9.0499      0.00000
     22       9.8940      0.00000
     23      11.0650      0.00000
     24      11.6057      0.00000

 k-point   158 :       0.5000    0.5000    0.1667
  band No.  band energies     occupation 
      1     -60.7288      1.00000
      2     -35.4754      1.00000
      3     -35.4754      1.00000
      4     -35.3630      1.00000
      5     -26.1097      1.00000
      6     -25.7693      1.00000
      7     -25.7693      1.00000
      8      -8.0383      1.00000
      9      -7.4498      1.00000
     10      -6.8974      1.00000
     11      -6.7188      1.00000
     12      -6.2985      1.00000
     13      -6.2985      1.00000
     14      -5.2281      1.00000
     15      -5.2281      1.00000
     16      -4.7623      1.00000
     17       6.5601      0.00000
     18       6.5601      0.00000
     19       6.9674      0.00000
     20       7.5328      0.00000
     21       9.0493      0.00000
     22       9.9242      0.00000
     23      10.9695      0.00000
     24      11.4544      0.00000

 k-point   159 :       0.5000    0.5000    0.1389
  band No.  band energies     occupation 
      1     -60.7289      1.00000
      2     -35.4756      1.00000
      3     -35.4756      1.00000
      4     -35.3522      1.00000
      5     -26.1420      1.00000
      6     -25.7696      1.00000
      7     -25.7696      1.00000
      8      -8.0290      1.00000
      9      -7.4503      1.00000
     10      -6.9005      1.00000
     11      -6.6299      1.00000
     12      -6.2121      1.00000
     13      -6.2121      1.00000
     14      -5.3056      1.00000
     15      -5.3056      1.00000
     16      -4.7627      1.00000
     17       6.5163      0.00000
     18       6.5163      0.00000
     19       6.9603      0.00000
     20       7.3945      0.00000
     21       9.0488      0.00000
     22       9.9507      0.00000
     23      10.8889      0.00000
     24      11.3250      0.00000

 k-point   160 :       0.5000    0.5000    0.1111
  band No.  band energies     occupation 
      1     -60.7290      1.00000
      2     -35.4758      1.00000
      3     -35.4758      1.00000
      4     -35.3429      1.00000
      5     -26.1700      1.00000
      6     -25.7700      1.00000
      7     -25.7700      1.00000
      8      -8.0219      1.00000
      9      -7.4507      1.00000
     10      -6.9032      1.00000
     11      -6.5512      1.00000
     12      -6.1227      1.00000
     13      -6.1227      1.00000
     14      -5.3874      1.00000
     15      -5.3874      1.00000
     16      -4.7629      1.00000
     17       6.4788      0.00000
     18       6.4788      0.00000
     19       6.9544      0.00000
     20       7.2690      0.00000
     21       9.0484      0.00000
     22       9.9730      0.00000
     23      10.8228      0.00000
     24      11.2104      0.00000

 k-point   161 :       0.5000    0.5000    0.0833
  band No.  band energies     occupation 
      1     -60.7291      1.00000
      2     -35.4760      1.00000
      3     -35.4760      1.00000
      4     -35.3353      1.00000
      5     -26.1925      1.00000
      6     -25.7703      1.00000
      7     -25.7703      1.00000
      8      -8.0167      1.00000
      9      -7.4510      1.00000
     10      -6.9054      1.00000
     11      -6.4860      1.00000
     12      -6.0312      1.00000
     13      -6.0312      1.00000
     14      -5.4728      1.00000
     15      -5.4728      1.00000
     16      -4.7632      1.00000
     17       6.4487      0.00000
     18       6.4487      0.00000
     19       6.9496      0.00000
     20       7.1670      0.00000
     21       9.0480      0.00000
     22       9.9907      0.00000
     23      10.7713      0.00000
     24      11.1170      0.00000

 k-point   162 :       0.5000    0.5000    0.0556
  band No.  band energies     occupation 
      1     -60.7291      1.00000
      2     -35.4761      1.00000
      3     -35.4761      1.00000
      4     -35.3297      1.00000
      5     -26.2092      1.00000
      6     -25.7705      1.00000
      7     -25.7705      1.00000
      8      -8.0131      1.00000
      9      -7.4513      1.00000
     10      -6.9070      1.00000
     11      -6.4372      1.00000
     12      -5.9384      1.00000
     13      -5.9384      1.00000
     14      -5.5611      1.00000
     15      -5.5611      1.00000
     16      -4.7634      1.00000
     17       6.4267      0.00000
     18       6.4267      0.00000
     19       6.9461      0.00000
     20       7.0913      0.00000
     21       9.0478      0.00000
     22      10.0034      0.00000
     23      10.7345      0.00000
     24      11.0439      0.00000

 k-point   163 :       0.5000    0.5000    0.0278
  band No.  band energies     occupation 
      1     -60.7292      1.00000
      2     -35.4761      1.00000
      3     -35.4761      1.00000
      4     -35.3263      1.00000
      5     -26.2194      1.00000
      6     -25.7706      1.00000
      7     -25.7706      1.00000
      8      -8.0111      1.00000
      9      -7.4514      1.00000
     10      -6.9080      1.00000
     11      -6.4070      1.00000
     12      -5.8463      1.00000
     13      -5.8463      1.00000
     14      -5.6504      1.00000
     15      -5.6504      1.00000
     16      -4.7635      1.00000
     17       6.4132      0.00000
     18       6.4133      0.00000
     19       6.9440      0.00000
     20       7.0443      0.00000
     21       9.0476      0.00000
     22      10.0112      0.00000
     23      10.7124      0.00000
     24      10.9910      0.00000

 k-point   164 :       0.5000    0.5000    0.0000
  band No.  band energies     occupation 
      1     -60.7292      1.00000
      2     -35.4762      1.00000
      3     -35.4762      1.00000
      4     -35.3251      1.00000
      5     -26.2227      1.00000
      6     -25.7705      1.00000
      7     -25.7705      1.00000
      8      -8.0104      1.00000
      9      -7.4515      1.00000
     10      -6.9083      1.00000
     11      -6.3968      1.00000
     12      -5.7768      1.00000
     13      -5.7768      1.00000
     14      -5.7190      1.00000
     15      -5.7190      1.00000
     16      -4.7635      1.00000
     17       6.4088      0.00000
     18       6.4088      0.00000
     19       6.9434      0.00000
     20       7.0276      0.00000
     21       9.0476      0.00000
     22      10.0138      0.00000
     23      10.7051      0.00000
     24      10.9578      0.00000


--------------------------------------------------------------------------------------------------------


 soft charge-density along one line, spin component           1
         0         1         2         3         4         5         6         7         8         9
 total charge-density along one line
 
 soft charge-density along one line, spin component           2
         0         1         2         3         4         5         6         7         8         9
 total charge-density along one line
 
 pseudopotential strength for first ion, spin component:           1
  7.212  -7.891  -0.000  -0.000  -0.000   0.000   0.000   0.000
 -7.891   8.576   0.000   0.000   0.000  -0.000  -0.000  -0.000
 -0.000   0.000 -10.464  -0.000  -0.000  11.529   0.000   0.000
 -0.000   0.000  -0.000 -10.606  -0.000   0.000  11.702   0.000
 -0.000   0.000  -0.000  -0.000 -10.464   0.000   0.000  11.529
  0.000  -0.000  11.529   0.000   0.000 -12.598  -0.000  -0.000
  0.000  -0.000   0.000  11.702   0.000  -0.000 -12.810  -0.000
  0.000  -0.000   0.000   0.000  11.529  -0.000  -0.000 -12.598
 pseudopotential strength for first ion, spin component:           2
  7.220  -7.901   0.000  -0.000   0.000  -0.000   0.000  -0.000
 -7.901   8.589  -0.000   0.000  -0.000   0.000  -0.000   0.000
  0.000  -0.000 -10.481  -0.000  -0.000  11.551   0.000   0.000
 -0.000   0.000  -0.000 -10.626  -0.000   0.000  11.729   0.000
  0.000  -0.000  -0.000  -0.000 -10.481   0.000   0.000  11.551
 -0.000   0.000  11.551   0.000   0.000 -12.626  -0.000  -0.000
  0.000  -0.000   0.000  11.729   0.000  -0.000 -12.845  -0.000
 -0.000   0.000   0.000   0.000  11.551  -0.000  -0.000 -12.626
 total augmentation occupancy for first ion, spin component:           1
  2.000   0.000   0.000   0.000   0.000   0.000   0.000   0.000
  0.000   0.000   0.000   0.000   0.000   0.000   0.000   0.000
  0.000   0.000   1.667   0.000   0.000   0.000   0.000   0.000
  0.000   0.000   0.000   1.667   0.000   0.000   0.000   0.000
  0.000   0.000   0.000   0.000   1.667   0.000   0.000   0.000
  0.000   0.000   0.000   0.000   0.000   0.000   0.000   0.000
  0.000   0.000   0.000   0.000   0.000   0.000   0.000   0.000
  0.000   0.000   0.000   0.000   0.000   0.000   0.000   0.000
 total augmentation occupancy for first ion, spin component:           2
  0.286   0.000   0.000   0.000   0.000   0.000   0.000   0.000
  0.000   0.000   0.000   0.000   0.000   0.000   0.000   0.000
  0.000   0.000   0.238   0.000   0.000   0.000   0.000   0.000
  0.000   0.000   0.000   0.238   0.000   0.000   0.000   0.000
  0.000   0.000   0.000   0.000   0.238   0.000   0.000   0.000
  0.000   0.000   0.000   0.000   0.000   0.000   0.000   0.000
  0.000   0.000   0.000   0.000   0.000   0.000   0.000   0.000
  0.000   0.000   0.000   0.000   0.000   0.000   0.000   0.000


------------------------ aborting loop because EDIFF is reached ----------------------------------------


 


 total charge     
 
# of ion       s       p       d       tot
------------------------------------------
    1        1.740   4.543   0.000   6.283
    2        1.746   4.478   0.000   6.224
    3        1.752   4.397   0.000   6.149
    4        2.132   6.155   1.453   9.740
--------------------------------------------------
tot          7.371  19.573   1.453  28.397
 


 magnetization (x)
 
# of ion       s       p       d       tot
------------------------------------------
    1       -0.001  -0.013   0.000  -0.014
    2       -0.001  -0.017   0.000  -0.018
    3       -0.001  -0.032   0.000  -0.033
    4        0.005   0.006   0.919   0.930
--------------------------------------------------
tot          0.002  -0.057   0.919   0.865
 
    CHARGE:  cpu time    0.0814: real time    0.0863
    FORLOC:  cpu time    0.0005: real time    0.0005
    FORHF :  cpu time  459.3212: real time  459.3544
    FORNL :  cpu time    0.1275: real time    0.1276
    FORCOR:  cpu time    0.1404: real time    0.1408
    FORHAR:  cpu time    0.0018: real time    0.0018
    OFIELD:  cpu time    0.0002: real time    0.0003

 VOLUME and BASIS-vectors are now :
 -----------------------------------------------------------------------------
  energy-cutoff  :      520.00
  volume of cell :       64.12
      direct lattice vectors                 reciprocal lattice vectors
     4.002457941  0.000000000  0.000000000     0.249846473  0.000000000  0.000000000
     0.000000000  4.002457941  0.000000000     0.000000000  0.249846473  0.000000000
     0.000000000  0.000000000  4.002457941     0.000000000  0.000000000  0.249846473

  length of vectors
     4.002457941  4.002457941  4.002457941     0.249846473  0.249846473  0.249846473


 FORCES acting on ions
    electron-ion (+dipol)            ewald-force                    non-local-force                 convergence-correction
 -----------------------------------------------------------------------------------------------
   -.395E-04 0.107E-04 0.199E-04   -.469E-15 -.472E-14 0.989E-14   0.000E+00 0.000E+00 0.000E+00   0.241E-04 -.837E-05 -.118E-04
   0.152E-04 0.431E-05 -.269E-04   -.656E-14 -.765E-15 -.146E-14   0.000E+00 0.000E+00 0.000E+00   -.117E-04 -.789E-06 0.162E-04
   0.310E-05 -.422E-04 0.289E-04   0.169E-13 -.161E-14 -.146E-14   0.000E+00 0.000E+00 0.000E+00   0.874E-06 0.260E-04 -.202E-04
   0.901E-04 0.507E-04 0.547E-04   -.107E-13 0.703E-14 -.667E-14   0.000E+00 0.000E+00 0.000E+00   -.667E-04 -.378E-04 -.402E-04
 -----------------------------------------------------------------------------------------------
   0.690E-04 0.235E-04 0.765E-04   -.810E-15 -.664E-16 0.299E-15   0.000E+00 0.000E+00 0.000E+00   -.534E-04 -.209E-04 -.559E-04
 
 
 POSITION                                       TOTAL-FORCE (eV/Angst)
 -----------------------------------------------------------------------------------
      0.00000      0.00000      2.00123         0.000000      0.000000      0.000000
      0.00000      2.00123      0.00000         0.000000      0.000000      0.000000
      2.00123      0.00000      0.00000         0.000000      0.000000      0.000000
      0.00000      0.00000      0.00000         0.000000      0.000000      0.000000
 -----------------------------------------------------------------------------------
    total drift:                                0.000016      0.000003      0.000021


--------------------------------------------------------------------------------------------------------



  FREE ENERGIE OF THE ION-ELECTRON SYSTEM (eV)
  ---------------------------------------------------
  free  energy   TOTEN  =       -30.68300949 eV

  energy  without entropy=      -30.67948640  energy(sigma->0) =      -30.68124795
 


--------------------------------------------------------------------------------------------------------


    POTLOK:  cpu time    0.1344: real time    0.1345


--------------------------------------------------------------------------------------------------------


     LOOP+:  cpu time 5192.0239: real time 5193.6062
    4ORBIT:  cpu time    0.0000: real time    0.0000
 


 total charge     
 
# of ion       s       p       d       tot
------------------------------------------
    1        1.740   4.543   0.000   6.283
    2        1.746   4.478   0.000   6.224
    3        1.752   4.397   0.000   6.149
    4        2.132   6.155   1.453   9.740
--------------------------------------------------
tot          7.371  19.573   1.453  28.397
 


 magnetization (x)
 
# of ion       s       p       d       tot
------------------------------------------
    1       -0.001  -0.013   0.000  -0.014
    2       -0.001  -0.017   0.000  -0.018
    3       -0.001  -0.032   0.000  -0.033
    4        0.005   0.006   0.919   0.930
--------------------------------------------------
tot          0.002  -0.057   0.919   0.865
 

 total amount of memory used by VASP MPI-rank0    55823. kBytes
=======================================================================

   base      :      30000. kBytes
   nonl-proj :      11351. kBytes
   fftplans  :        753. kBytes
   grid      :        587. kBytes
   one-center:         31. kBytes
   HF        :         23. kBytes
   nonlr-proj:        610. kBytes
   wavefun   :      12468. kBytes
 
  
  
 General timing and accounting informations for this job:
 ========================================================
  
                  Total CPU time used (sec):     5218.368
                            User time (sec):     5215.348
                          System time (sec):        3.020
                         Elapsed time (sec):     5221.338
  
                   Maximum memory used (kb):      268156.
                   Average memory used (kb):           0.
  
                          Minor page faults:       281985
                          Major page faults:         2610
                 Voluntary context switches:         4326
