 vasp.5.4.1 24Jun15 (build Nov 23 2015 09:58:10) complex                        
  
 executed on             LinuxIFC date 2020.05.13  09:59:36
 running on   96 total cores
 distrk:  each k-point on   96 cores,    1 groups
 distr:  one band on NCORES_PER_BAND=  12 cores,    8 groups


--------------------------------------------------------------------------------------------------------


 INCAR:
 POTCAR:    PAW_PBE Pr_3 07Sep2000                
 POTCAR:    PAW_PBE Se 06Sep2000                  
 POTCAR:    PAW_PBE O 08Apr2002                   
 POTCAR:    PAW_PBE Pr_3 07Sep2000                
   VRHFIN =Pr : [core=Xe4]                                                      
   LEXCH  = PE                                                                  
   EATOM  =   912.8502 eV,   67.0926 Ry                                         
                                                                                
   TITEL  = PAW_PBE Pr_3 07Sep2000                                              
   LULTRA =        F    use ultrasoft PP ?                                      
   IUNSCR =        1    unscreen: 0-lin 1-nonlin 2-no                           
   RPACOR =    2.400    partial core radius                                     
   POMASS =  140.907; ZVAL   =   11.000    mass and valenz                      
   RCORE  =    2.800    outmost cutoff radius                                   
   RWIGS  =    3.100; RWIGS  =    1.640    wigner-seitz radius (au A)           
   ENMAX  =  181.719; ENMIN  =  136.289 eV                                      
   RCLOC  =    2.419    cutoff for local pot                                    
   LCOR   =        T    correct aug charges                                     
   LPAW   =        T    paw PP                                                  
   EAUG   =  303.718                                                            
   DEXC   =    0.000                                                            
   RMAX   =    2.867    core radius for proj-oper                               
   RAUG   =    1.300    factor for augmentation sphere                          
   RDEP   =    2.816    radius for radial grids                                 
   RDEPT  =    2.395    core radius for aug-charge                              
                                                                                
   Atomic configuration                                                         
   14 entries                                                                   
     n  l   j            E        occ.                                          
     1  0  0.50    -41810.3934   2.0000                                         
     2  0  0.50     -6731.1418   2.0000                                         
     2  1  1.50     -6022.4876   6.0000                                         
     3  0  0.50     -1458.2043   2.0000                                         
     3  1  1.50     -1233.8862   6.0000                                         
     3  2  2.50      -919.2566  10.0000                                         
     4  0  0.50      -295.2681   2.0000                                         
     4  1  1.50      -221.8430   6.0000                                         
     4  2  2.50      -116.8418  10.0000                                         
     4  3  2.50        -6.2311   2.0000                                         
     5  0  0.50       -42.1589   2.0000                                         
     6  0  0.50        -3.8068   2.0000                                         
     5  1  1.50       -23.9655   6.0000                                         
     5  2  2.50        -3.0008   1.0000                                         
   Description                                                                  
     l       E           TYP  RCUT    TYP  RCUT                                 
     0    -42.1589422     23  2.800                                             
     0     -3.8068346     23  2.800                                             
     1    -23.9655307     23  2.800                                             
     1     13.6058260     23  2.800                                             
     2     -3.0008139     23  2.800                                             
     2     -0.1733532     23  2.800                                             
  local pseudopotential read in
  partial core-charges read in
  partial kinetic energy density read in
  atomic valenz-charges read in
  non local Contribution for L=           0  read in
    real space projection operators read in
  non local Contribution for L=           0  read in
    real space projection operators read in
  non local Contribution for L=           1  read in
    real space projection operators read in
  non local Contribution for L=           1  read in
    real space projection operators read in
  non local Contribution for L=           2  read in
    real space projection operators read in
  non local Contribution for L=           2  read in
    real space projection operators read in
    PAW grid and wavefunctions read in
 
   number of l-projection  operators is LMAX  =           6
   number of lm-projection operators is LMMAX =          18
 
 POTCAR:    PAW_PBE Se 06Sep2000                  
   VRHFIN =Se: s2p4                                                             
   LEXCH  = PE                                                                  
   EATOM  =   257.1286 eV,   18.8984 Ry                                         
                                                                                
   TITEL  = PAW_PBE Se 06Sep2000                                                
   LULTRA =        F    use ultrasoft PP ?                                      
   IUNSCR =        1    unscreen: 0-lin 1-nonlin 2-no                           
   RPACOR =    1.900    partial core radius                                     
   POMASS =   78.960; ZVAL   =    6.000    mass and valenz                      
   RCORE  =    2.100    outmost cutoff radius                                   
   RWIGS  =    2.200; RWIGS  =    1.164    wigner-seitz radius (au A)           
   ENMAX  =  211.555; ENMIN  =  158.666 eV                                      
   ICORE  =        3    local potential                                         
   LCOR   =        T    correct aug charges                                     
   LPAW   =        T    paw PP                                                  
   EAUG   =  446.842                                                            
   DEXC   =    0.000                                                            
   RMAX   =    2.147    core radius for proj-oper                               
   RAUG   =    1.300    factor for augmentation sphere                          
   RDEP   =    2.177    radius for radial grids                                 
   RDEPT  =    1.928    core radius for aug-charge                              
                                                                                
   Atomic configuration                                                         
   10 entries                                                                   
     n  l   j            E        occ.                                          
     1  0  0.50    -12503.4787   2.0000                                         
     2  0  0.50     -1606.9547   2.0000                                         
     2  1  1.50     -1413.3140   6.0000                                         
     3  0  0.50      -213.4885   2.0000                                         
     3  1  1.50      -152.9538   6.0000                                         
     3  2  2.50       -53.1221  10.0000                                         
     4  0  0.50       -17.2865   2.0000                                         
     4  1  0.50        -6.5110   4.0000                                         
     4  2  2.50        -6.8029   0.0000                                         
     4  3  2.50        -6.8029   0.0000                                         
   Description                                                                  
     l       E           TYP  RCUT    TYP  RCUT                                 
     0    -17.2865377     23  2.100                                             
     0    -15.3094411     23  2.100                                             
     1     -6.5110275     23  2.100                                             
     1     -0.0695192     23  2.100                                             
     2     -6.8029130     23  2.100                                             
     3     -1.3605826      7  2.100                                             
  local pseudopotential read in
  partial core-charges read in
  partial kinetic energy density read in
  atomic valenz-charges read in
  non local Contribution for L=           0  read in
    real space projection operators read in
  non local Contribution for L=           0  read in
    real space projection operators read in
  non local Contribution for L=           1  read in
    real space projection operators read in
  non local Contribution for L=           1  read in
    real space projection operators read in
  non local Contribution for L=           2  read in
    real space projection operators read in
    PAW grid and wavefunctions read in
 
   number of l-projection  operators is LMAX  =           5
   number of lm-projection operators is LMMAX =          13
 
 POTCAR:    PAW_PBE O 08Apr2002                   
   VRHFIN =O: s2p4                                                              
   LEXCH  = PE                                                                  
   EATOM  =   432.3788 eV,   31.7789 Ry                                         
                                                                                
   TITEL  = PAW_PBE O 08Apr2002                                                 
   LULTRA =        F    use ultrasoft PP ?                                      
   IUNSCR =        1    unscreen: 0-lin 1-nonlin 2-no                           
   RPACOR =    1.200    partial core radius                                     
   POMASS =   16.000; ZVAL   =    6.000    mass and valenz                      
   RCORE  =    1.520    outmost cutoff radius                                   
   RWIGS  =    1.550; RWIGS  =    0.820    wigner-seitz radius (au A)           
   ENMAX  =  400.000; ENMIN  =  300.000 eV                                      
   ICORE  =        2    local potential                                         
   LCOR   =        T    correct aug charges                                     
   LPAW   =        T    paw PP                                                  
   EAUG   =  605.392                                                            
   DEXC   =    0.000                                                            
   RMAX   =    1.553    core radius for proj-oper                               
   RAUG   =    1.300    factor for augmentation sphere                          
   RDEP   =    1.550    radius for radial grids                                 
   RDEPT  =    1.329    core radius for aug-charge                              
                                                                                
   Atomic configuration                                                         
    4 entries                                                                   
     n  l   j            E        occ.                                          
     1  0  0.50      -514.6923   2.0000                                         
     2  0  0.50       -23.9615   2.0000                                         
     2  1  0.50        -9.0305   4.0000                                         
     3  2  1.50        -9.5241   0.0000                                         
   Description                                                                  
     l       E           TYP  RCUT    TYP  RCUT                                 
     0    -23.9615318     23  1.200                                             
     0     -9.5240782     23  1.200                                             
     1     -9.0304911     23  1.520                                             
     1      8.1634956     23  1.520                                             
     2     -9.5240782      7  1.500                                             
  local pseudopotential read in
  partial core-charges read in
  partial kinetic energy density read in
  kinetic energy density of atom read in
  atomic valenz-charges read in
  non local Contribution for L=           0  read in
    real space projection operators read in
  non local Contribution for L=           0  read in
    real space projection operators read in
  non local Contribution for L=           1  read in
    real space projection operators read in
  non local Contribution for L=           1  read in
    real space projection operators read in
    PAW grid and wavefunctions read in
 
   number of l-projection  operators is LMAX  =           4
   number of lm-projection operators is LMMAX =           8
 
  PAW_PBE Pr_3 07Sep2000                :
 energy of atom  1       EATOM= -912.8502
 kinetic energy error for atom=    0.0006 (will be added to EATOM!!)
  PAW_PBE Se 06Sep2000                  :
 energy of atom  2       EATOM= -257.1286
 kinetic energy error for atom=    0.0007 (will be added to EATOM!!)
  PAW_PBE O 08Apr2002                   :
 energy of atom  3       EATOM= -432.3788
 kinetic energy error for atom=    0.0208 (will be added to EATOM!!)
 
 
 POSCAR: Pr4 Se3 O4                              
  positions in direct lattice
  velocities in cartesian coordinates
 exchange correlation table for  LEXCH =        8
   RHO(1)=    0.500       N(1)  =     2000
   RHO(2)=  100.500       N(2)  =     4000
 


--------------------------------------------------------------------------------------------------------


 ion  position               nearest neighbor table
   1  0.000  0.000  0.000-  10 2.30  10 2.30   9 2.37   8 2.37   7 3.17   7 3.17   4 3.71   3 3.71
                             4 3.71   3 3.71
   2  0.981  0.019  0.500-   8 2.36   9 2.36  11 2.39  11 2.39   5 3.16   5 3.16   6 3.16   6 3.16
                             3 3.70   3 3.70   4 3.70   4 3.70
   3  0.315  0.685  0.236-   8 2.36   8 2.36  10 2.39  11 2.40   5 3.16   5 3.16   7 3.28   7 3.28
                             2 3.70   2 3.70   1 3.71   1 3.71
   4  0.315  0.685  0.764-   9 2.36   9 2.36  10 2.39  11 2.40   6 3.16   6 3.16   7 3.28   7 3.28
                             2 3.70   2 3.70   1 3.71   1 3.71
   5  0.643  0.357  0.355-   6 2.46   2 3.16   2 3.16   3 3.16   3 3.16
   6  0.643  0.357  0.645-   5 2.46   2 3.16   2 3.16   4 3.16   4 3.16
   7  0.689  0.311  0.000-   1 3.17   1 3.17   3 3.28   3 3.28   4 3.28   4 3.28
   8  0.910  0.090  0.243-   3 2.36   3 2.36   2 2.36   1 2.37
   9  0.910  0.090  0.757-   4 2.36   4 2.36   2 2.36   1 2.37
  10  0.415  0.585  0.000-   1 2.30   1 2.30   4 2.39   3 2.39
  11  0.382  0.618  0.500-   2 2.39   2 2.39   4 2.40   3 2.40
 
  LATTYP: Found a base centered orthorhombic cell.
 ALAT       =     4.0278000000
 B/A-ratio  =     3.2091216048
 C/A-ratio  =     2.1101345648
  
  Lattice vectors:
  
 A1 = (   2.0139000000,  -6.4628500000,   0.0000000000)
 A2 = (   2.0139000000,   6.4628500000,   0.0000000000)
 A3 = (   0.0000000000,   0.0000000000,   8.4992000000)


Analysis of symmetry for initial positions (statically):
=====================================================================
 Subroutine PRICEL returns:
 Original cell was already a primitive cell.
 

 Routine SETGRP: Setting up the symmetry group for a 
 base centered orthorhombic supercell.


 Subroutine GETGRP returns: Found  4 space group operations
 (whereof  4 operations were pure point group operations)
 out of a pool of  8 trial point group operations.


The static configuration has the point symmetry C_2v.


Analysis of symmetry for dynamics (positions and initial velocities):
=====================================================================
 Subroutine PRICEL returns:
 Original cell was already a primitive cell.
 

 Routine SETGRP: Setting up the symmetry group for a 
 base centered orthorhombic supercell.


 Subroutine GETGRP returns: Found  4 space group operations
 (whereof  4 operations were pure point group operations)
 out of a pool of  8 trial point group operations.


The dynamic configuration has the point symmetry C_2v.


Analysis of magnetic symmetry:
=====================================================================
 Subroutine PRICEL returns:
 Original cell was already a primitive cell.
 

 Subroutine MAGSYM returns: Found  4 space group operations
 (whereof  4 operations were pure point group operations)
 out of a pool of  4 trial space group operations
 (whereof  4 operations were pure point group operations)
 and found also     1 'primitive' translations


The magnetic configuration has the point symmetry C_2v.
 
 
 KPOINTS: K-Mesh                                  

Automatic generation of k-mesh.
Space group operators:
 irot       det(A)        alpha          n_x          n_y          n_z        tau_x        tau_y        tau_z
    1     1.000000     0.000001     1.000000     0.000000     0.000000     0.000000     0.000000     0.000000
    2    -1.000000   180.000000     0.000000     0.000000     1.000000     0.000000     0.000000     0.000000
    3     1.000000   180.000000     0.000000     1.000000     0.000000     0.000000     0.000000     0.000000
    4    -1.000000   179.999999     1.000000     0.000000     0.000000     0.000000     0.000000     0.000000
 
 Subroutine IBZKPT returns following result:
 ===========================================
 
 Found    196 irreducible k-points:
 
 Following reciprocal coordinates:
            Coordinates               Weight
  0.000000  0.000000  0.000000      1.000000
  0.076923  0.000000  0.000000      4.000000
  0.153846  0.000000  0.000000      4.000000
  0.230769  0.000000  0.000000      4.000000
  0.307692  0.000000  0.000000      4.000000
  0.384615  0.000000  0.000000      4.000000
  0.461538  0.000000  0.000000      4.000000
  0.076923  0.076923  0.000000      2.000000
  0.153846  0.076923  0.000000      4.000000
  0.230769  0.076923  0.000000      4.000000
  0.307692  0.076923  0.000000      4.000000
  0.384615  0.076923  0.000000      4.000000
  0.461538  0.076923  0.000000      4.000000
 -0.461538  0.076923  0.000000      4.000000
 -0.384615  0.076923  0.000000      4.000000
 -0.307692  0.076923  0.000000      4.000000
 -0.230769  0.076923  0.000000      4.000000
 -0.153846  0.076923  0.000000      4.000000
 -0.076923  0.076923  0.000000      2.000000
  0.153846  0.153846  0.000000      2.000000
  0.230769  0.153846  0.000000      4.000000
  0.307692  0.153846  0.000000      4.000000
  0.384615  0.153846  0.000000      4.000000
  0.461538  0.153846  0.000000      4.000000
 -0.461538  0.153846  0.000000      4.000000
 -0.384615  0.153846  0.000000      4.000000
 -0.307692  0.153846  0.000000      4.000000
 -0.230769  0.153846  0.000000      4.000000
 -0.153846  0.153846  0.000000      2.000000
  0.230769  0.230769  0.000000      2.000000
  0.307692  0.230769  0.000000      4.000000
  0.384615  0.230769  0.000000      4.000000
  0.461538  0.230769  0.000000      4.000000
 -0.461538  0.230769  0.000000      4.000000
 -0.384615  0.230769  0.000000      4.000000
 -0.307692  0.230769  0.000000      4.000000
 -0.230769  0.230769  0.000000      2.000000
  0.307692  0.307692  0.000000      2.000000
  0.384615  0.307692  0.000000      4.000000
  0.461538  0.307692  0.000000      4.000000
 -0.461538  0.307692  0.000000      4.000000
 -0.384615  0.307692  0.000000      4.000000
 -0.307692  0.307692  0.000000      2.000000
  0.384615  0.384615  0.000000      2.000000
  0.461538  0.384615  0.000000      4.000000
 -0.461538  0.384615  0.000000      4.000000
 -0.384615  0.384615  0.000000      2.000000
  0.461538  0.461538  0.000000      2.000000
 -0.461538  0.461538  0.000000      2.000000
  0.000000  0.000000  0.166667      2.000000
  0.076923  0.000000  0.166667      8.000000
  0.153846  0.000000  0.166667      8.000000
  0.230769  0.000000  0.166667      8.000000
  0.307692  0.000000  0.166667      8.000000
  0.384615  0.000000  0.166667      8.000000
  0.461538  0.000000  0.166667      8.000000
  0.076923  0.076923  0.166667      4.000000
  0.153846  0.076923  0.166667      8.000000
  0.230769  0.076923  0.166667      8.000000
  0.307692  0.076923  0.166667      8.000000
  0.384615  0.076923  0.166667      8.000000
  0.461538  0.076923  0.166667      8.000000
 -0.461538  0.076923  0.166667      8.000000
 -0.384615  0.076923  0.166667      8.000000
 -0.307692  0.076923  0.166667      8.000000
 -0.230769  0.076923  0.166667      8.000000
 -0.153846  0.076923  0.166667      8.000000
 -0.076923  0.076923  0.166667      4.000000
  0.153846  0.153846  0.166667      4.000000
  0.230769  0.153846  0.166667      8.000000
  0.307692  0.153846  0.166667      8.000000
  0.384615  0.153846  0.166667      8.000000
  0.461538  0.153846  0.166667      8.000000
 -0.461538  0.153846  0.166667      8.000000
 -0.384615  0.153846  0.166667      8.000000
 -0.307692  0.153846  0.166667      8.000000
 -0.230769  0.153846  0.166667      8.000000
 -0.153846  0.153846  0.166667      4.000000
  0.230769  0.230769  0.166667      4.000000
  0.307692  0.230769  0.166667      8.000000
  0.384615  0.230769  0.166667      8.000000
  0.461538  0.230769  0.166667      8.000000
 -0.461538  0.230769  0.166667      8.000000
 -0.384615  0.230769  0.166667      8.000000
 -0.307692  0.230769  0.166667      8.000000
 -0.230769  0.230769  0.166667      4.000000
  0.307692  0.307692  0.166667      4.000000
  0.384615  0.307692  0.166667      8.000000
  0.461538  0.307692  0.166667      8.000000
 -0.461538  0.307692  0.166667      8.000000
 -0.384615  0.307692  0.166667      8.000000
 -0.307692  0.307692  0.166667      4.000000
  0.384615  0.384615  0.166667      4.000000
  0.461538  0.384615  0.166667      8.000000
 -0.461538  0.384615  0.166667      8.000000
 -0.384615  0.384615  0.166667      4.000000
  0.461538  0.461538  0.166667      4.000000
 -0.461538  0.461538  0.166667      4.000000
  0.000000  0.000000  0.333333      2.000000
  0.076923  0.000000  0.333333      8.000000
  0.153846  0.000000  0.333333      8.000000
  0.230769  0.000000  0.333333      8.000000
  0.307692  0.000000  0.333333      8.000000
  0.384615  0.000000  0.333333      8.000000
  0.461538  0.000000  0.333333      8.000000
  0.076923  0.076923  0.333333      4.000000
  0.153846  0.076923  0.333333      8.000000
  0.230769  0.076923  0.333333      8.000000
  0.307692  0.076923  0.333333      8.000000
  0.384615  0.076923  0.333333      8.000000
  0.461538  0.076923  0.333333      8.000000
 -0.461538  0.076923  0.333333      8.000000
 -0.384615  0.076923  0.333333      8.000000
 -0.307692  0.076923  0.333333      8.000000
 -0.230769  0.076923  0.333333      8.000000
 -0.153846  0.076923  0.333333      8.000000
 -0.076923  0.076923  0.333333      4.000000
  0.153846  0.153846  0.333333      4.000000
  0.230769  0.153846  0.333333      8.000000
  0.307692  0.153846  0.333333      8.000000
  0.384615  0.153846  0.333333      8.000000
  0.461538  0.153846  0.333333      8.000000
 -0.461538  0.153846  0.333333      8.000000
 -0.384615  0.153846  0.333333      8.000000
 -0.307692  0.153846  0.333333      8.000000
 -0.230769  0.153846  0.333333      8.000000
 -0.153846  0.153846  0.333333      4.000000
  0.230769  0.230769  0.333333      4.000000
  0.307692  0.230769  0.333333      8.000000
  0.384615  0.230769  0.333333      8.000000
  0.461538  0.230769  0.333333      8.000000
 -0.461538  0.230769  0.333333      8.000000
 -0.384615  0.230769  0.333333      8.000000
 -0.307692  0.230769  0.333333      8.000000
 -0.230769  0.230769  0.333333      4.000000
  0.307692  0.307692  0.333333      4.000000
  0.384615  0.307692  0.333333      8.000000
  0.461538  0.307692  0.333333      8.000000
 -0.461538  0.307692  0.333333      8.000000
 -0.384615  0.307692  0.333333      8.000000
 -0.307692  0.307692  0.333333      4.000000
  0.384615  0.384615  0.333333      4.000000
  0.461538  0.384615  0.333333      8.000000
 -0.461538  0.384615  0.333333      8.000000
 -0.384615  0.384615  0.333333      4.000000
  0.461538  0.461538  0.333333      4.000000
 -0.461538  0.461538  0.333333      4.000000
  0.000000  0.000000  0.500000      1.000000
  0.076923  0.000000  0.500000      4.000000
  0.153846  0.000000  0.500000      4.000000
  0.230769  0.000000  0.500000      4.000000
  0.307692  0.000000  0.500000      4.000000
  0.384615  0.000000  0.500000      4.000000
  0.461538  0.000000  0.500000      4.000000
  0.076923  0.076923  0.500000      2.000000
  0.153846  0.076923  0.500000      4.000000
  0.230769  0.076923  0.500000      4.000000
  0.307692  0.076923  0.500000      4.000000
  0.384615  0.076923  0.500000      4.000000
  0.461538  0.076923  0.500000      4.000000
 -0.461538  0.076923  0.500000      4.000000
 -0.384615  0.076923  0.500000      4.000000
 -0.307692  0.076923  0.500000      4.000000
 -0.230769  0.076923  0.500000      4.000000
 -0.153846  0.076923  0.500000      4.000000
 -0.076923  0.076923  0.500000      2.000000
  0.153846  0.153846  0.500000      2.000000
  0.230769  0.153846  0.500000      4.000000
  0.307692  0.153846  0.500000      4.000000
  0.384615  0.153846  0.500000      4.000000
  0.461538  0.153846  0.500000      4.000000
 -0.461538  0.153846  0.500000      4.000000
 -0.384615  0.153846  0.500000      4.000000
 -0.307692  0.153846  0.500000      4.000000
 -0.230769  0.153846  0.500000      4.000000
 -0.153846  0.153846  0.500000      2.000000
  0.230769  0.230769  0.500000      2.000000
  0.307692  0.230769  0.500000      4.000000
  0.384615  0.230769  0.500000      4.000000
  0.461538  0.230769  0.500000      4.000000
 -0.461538  0.230769  0.500000      4.000000
 -0.384615  0.230769  0.500000      4.000000
 -0.307692  0.230769  0.500000      4.000000
 -0.230769  0.230769  0.500000      2.000000
  0.307692  0.307692  0.500000      2.000000
  0.384615  0.307692  0.500000      4.000000
  0.461538  0.307692  0.500000      4.000000
 -0.461538  0.307692  0.500000      4.000000
 -0.384615  0.307692  0.500000      4.000000
 -0.307692  0.307692  0.500000      2.000000
  0.384615  0.384615  0.500000      2.000000
  0.461538  0.384615  0.500000      4.000000
 -0.461538  0.384615  0.500000      4.000000
 -0.384615  0.384615  0.500000      2.000000
  0.461538  0.461538  0.500000      2.000000
 -0.461538  0.461538  0.500000      2.000000
 
 Following cartesian coordinates:
            Coordinates               Weight
  0.000000  0.000000  0.000000      1.000000
  0.019098 -0.005951  0.000000      4.000000
  0.038196 -0.011902  0.000000      4.000000
  0.057294 -0.017854  0.000000      4.000000
  0.076392 -0.023805  0.000000      4.000000
  0.095490 -0.029756  0.000000      4.000000
  0.114588 -0.035707  0.000000      4.000000
  0.038196  0.000000  0.000000      2.000000
  0.057294 -0.005951  0.000000      4.000000
  0.076392 -0.011902  0.000000      4.000000
  0.095490 -0.017854  0.000000      4.000000
  0.114588 -0.023805  0.000000      4.000000
  0.133686 -0.029756  0.000000      4.000000
 -0.095490  0.041658  0.000000      4.000000
 -0.076392  0.035707  0.000000      4.000000
 -0.057294  0.029756  0.000000      4.000000
 -0.038196  0.023805  0.000000      4.000000
 -0.019098  0.017854  0.000000      4.000000
  0.000000  0.011902  0.000000      2.000000
  0.076392  0.000000  0.000000      2.000000
  0.095490 -0.005951  0.000000      4.000000
  0.114588 -0.011902  0.000000      4.000000
  0.133686 -0.017854  0.000000      4.000000
  0.152784 -0.023805  0.000000      4.000000
 -0.076392  0.047609  0.000000      4.000000
 -0.057294  0.041658  0.000000      4.000000
 -0.038196  0.035707  0.000000      4.000000
 -0.019098  0.029756  0.000000      4.000000
  0.000000  0.023805  0.000000      2.000000
  0.114588  0.000000  0.000000      2.000000
  0.133686 -0.005951  0.000000      4.000000
  0.152784 -0.011902  0.000000      4.000000
  0.171882 -0.017854  0.000000      4.000000
 -0.057294  0.053561  0.000000      4.000000
 -0.038196  0.047609  0.000000      4.000000
 -0.019098  0.041658  0.000000      4.000000
  0.000000  0.035707  0.000000      2.000000
  0.152784  0.000000  0.000000      2.000000
  0.171882 -0.005951  0.000000      4.000000
  0.190980 -0.011902  0.000000      4.000000
 -0.038196  0.059512  0.000000      4.000000
 -0.019098  0.053561  0.000000      4.000000
  0.000000  0.047609  0.000000      2.000000
  0.190980  0.000000  0.000000      2.000000
  0.210078 -0.005951  0.000000      4.000000
 -0.019098  0.065463  0.000000      4.000000
  0.000000  0.059512  0.000000      2.000000
  0.229176  0.000000  0.000000      2.000000
  0.000000  0.071414  0.000000      2.000000
  0.000000  0.000000  0.019610      2.000000
  0.019098 -0.005951  0.019610      8.000000
  0.038196 -0.011902  0.019610      8.000000
  0.057294 -0.017854  0.019610      8.000000
  0.076392 -0.023805  0.019610      8.000000
  0.095490 -0.029756  0.019610      8.000000
  0.114588 -0.035707  0.019610      8.000000
  0.038196  0.000000  0.019610      4.000000
  0.057294 -0.005951  0.019610      8.000000
  0.076392 -0.011902  0.019610      8.000000
  0.095490 -0.017854  0.019610      8.000000
  0.114588 -0.023805  0.019610      8.000000
  0.133686 -0.029756  0.019610      8.000000
 -0.095490  0.041658  0.019610      8.000000
 -0.076392  0.035707  0.019610      8.000000
 -0.057294  0.029756  0.019610      8.000000
 -0.038196  0.023805  0.019610      8.000000
 -0.019098  0.017854  0.019610      8.000000
  0.000000  0.011902  0.019610      4.000000
  0.076392  0.000000  0.019610      4.000000
  0.095490 -0.005951  0.019610      8.000000
  0.114588 -0.011902  0.019610      8.000000
  0.133686 -0.017854  0.019610      8.000000
  0.152784 -0.023805  0.019610      8.000000
 -0.076392  0.047609  0.019610      8.000000
 -0.057294  0.041658  0.019610      8.000000
 -0.038196  0.035707  0.019610      8.000000
 -0.019098  0.029756  0.019610      8.000000
  0.000000  0.023805  0.019610      4.000000
  0.114588  0.000000  0.019610      4.000000
  0.133686 -0.005951  0.019610      8.000000
  0.152784 -0.011902  0.019610      8.000000
  0.171882 -0.017854  0.019610      8.000000
 -0.057294  0.053561  0.019610      8.000000
 -0.038196  0.047609  0.019610      8.000000
 -0.019098  0.041658  0.019610      8.000000
  0.000000  0.035707  0.019610      4.000000
  0.152784  0.000000  0.019610      4.000000
  0.171882 -0.005951  0.019610      8.000000
  0.190980 -0.011902  0.019610      8.000000
 -0.038196  0.059512  0.019610      8.000000
 -0.019098  0.053561  0.019610      8.000000
  0.000000  0.047609  0.019610      4.000000
  0.190980  0.000000  0.019610      4.000000
  0.210078 -0.005951  0.019610      8.000000
 -0.019098  0.065463  0.019610      8.000000
  0.000000  0.059512  0.019610      4.000000
  0.229176  0.000000  0.019610      4.000000
  0.000000  0.071414  0.019610      4.000000
  0.000000  0.000000  0.039219      2.000000
  0.019098 -0.005951  0.039219      8.000000
  0.038196 -0.011902  0.039219      8.000000
  0.057294 -0.017854  0.039219      8.000000
  0.076392 -0.023805  0.039219      8.000000
  0.095490 -0.029756  0.039219      8.000000
  0.114588 -0.035707  0.039219      8.000000
  0.038196  0.000000  0.039219      4.000000
  0.057294 -0.005951  0.039219      8.000000
  0.076392 -0.011902  0.039219      8.000000
  0.095490 -0.017854  0.039219      8.000000
  0.114588 -0.023805  0.039219      8.000000
  0.133686 -0.029756  0.039219      8.000000
 -0.095490  0.041658  0.039219      8.000000
 -0.076392  0.035707  0.039219      8.000000
 -0.057294  0.029756  0.039219      8.000000
 -0.038196  0.023805  0.039219      8.000000
 -0.019098  0.017854  0.039219      8.000000
  0.000000  0.011902  0.039219      4.000000
  0.076392  0.000000  0.039219      4.000000
  0.095490 -0.005951  0.039219      8.000000
  0.114588 -0.011902  0.039219      8.000000
  0.133686 -0.017854  0.039219      8.000000
  0.152784 -0.023805  0.039219      8.000000
 -0.076392  0.047609  0.039219      8.000000
 -0.057294  0.041658  0.039219      8.000000
 -0.038196  0.035707  0.039219      8.000000
 -0.019098  0.029756  0.039219      8.000000
  0.000000  0.023805  0.039219      4.000000
  0.114588  0.000000  0.039219      4.000000
  0.133686 -0.005951  0.039219      8.000000
  0.152784 -0.011902  0.039219      8.000000
  0.171882 -0.017854  0.039219      8.000000
 -0.057294  0.053561  0.039219      8.000000
 -0.038196  0.047609  0.039219      8.000000
 -0.019098  0.041658  0.039219      8.000000
  0.000000  0.035707  0.039219      4.000000
  0.152784  0.000000  0.039219      4.000000
  0.171882 -0.005951  0.039219      8.000000
  0.190980 -0.011902  0.039219      8.000000
 -0.038196  0.059512  0.039219      8.000000
 -0.019098  0.053561  0.039219      8.000000
  0.000000  0.047609  0.039219      4.000000
  0.190980  0.000000  0.039219      4.000000
  0.210078 -0.005951  0.039219      8.000000
 -0.019098  0.065463  0.039219      8.000000
  0.000000  0.059512  0.039219      4.000000
  0.229176  0.000000  0.039219      4.000000
  0.000000  0.071414  0.039219      4.000000
  0.000000  0.000000  0.058829      1.000000
  0.019098 -0.005951  0.058829      4.000000
  0.038196 -0.011902  0.058829      4.000000
  0.057294 -0.017854  0.058829      4.000000
  0.076392 -0.023805  0.058829      4.000000
  0.095490 -0.029756  0.058829      4.000000
  0.114588 -0.035707  0.058829      4.000000
  0.038196  0.000000  0.058829      2.000000
  0.057294 -0.005951  0.058829      4.000000
  0.076392 -0.011902  0.058829      4.000000
  0.095490 -0.017854  0.058829      4.000000
  0.114588 -0.023805  0.058829      4.000000
  0.133686 -0.029756  0.058829      4.000000
 -0.095490  0.041658  0.058829      4.000000
 -0.076392  0.035707  0.058829      4.000000
 -0.057294  0.029756  0.058829      4.000000
 -0.038196  0.023805  0.058829      4.000000
 -0.019098  0.017854  0.058829      4.000000
  0.000000  0.011902  0.058829      2.000000
  0.076392  0.000000  0.058829      2.000000
  0.095490 -0.005951  0.058829      4.000000
  0.114588 -0.011902  0.058829      4.000000
  0.133686 -0.017854  0.058829      4.000000
  0.152784 -0.023805  0.058829      4.000000
 -0.076392  0.047609  0.058829      4.000000
 -0.057294  0.041658  0.058829      4.000000
 -0.038196  0.035707  0.058829      4.000000
 -0.019098  0.029756  0.058829      4.000000
  0.000000  0.023805  0.058829      2.000000
  0.114588  0.000000  0.058829      2.000000
  0.133686 -0.005951  0.058829      4.000000
  0.152784 -0.011902  0.058829      4.000000
  0.171882 -0.017854  0.058829      4.000000
 -0.057294  0.053561  0.058829      4.000000
 -0.038196  0.047609  0.058829      4.000000
 -0.019098  0.041658  0.058829      4.000000
  0.000000  0.035707  0.058829      2.000000
  0.152784  0.000000  0.058829      2.000000
  0.171882 -0.005951  0.058829      4.000000
  0.190980 -0.011902  0.058829      4.000000
 -0.038196  0.059512  0.058829      4.000000
 -0.019098  0.053561  0.058829      4.000000
  0.000000  0.047609  0.058829      2.000000
  0.190980  0.000000  0.058829      2.000000
  0.210078 -0.005951  0.058829      4.000000
 -0.019098  0.065463  0.058829      4.000000
  0.000000  0.059512  0.058829      2.000000
  0.229176  0.000000  0.058829      2.000000
  0.000000  0.071414  0.058829      2.000000
 


--------------------------------------------------------------------------------------------------------




 Dimension of arrays:
   k-points           NKPTS =    196   k-points in BZ     NKDIM =    196   number of bands    NBANDS=     64
   number of dos      NEDOS =    301   number of ions     NIONS =     11
   non local maximal  LDIM  =      6   non local SUM 2l+1 LMDIM =     18
   total plane-waves  NPLWV = 160000
   max r-space proj   IRMAX =      1   max aug-charges    IRDMAX= 450396
   dimension x,y,z NGX =    50 NGY =   50 NGZ =   64
   dimension x,y,z NGXF=   100 NGYF=  100 NGZF=  128
   support grid    NGXF=   200 NGYF=  200 NGZF=  256
   ions per type =               4   3   4
 NGX,Y,Z   is equivalent  to a cutoff of  12.28, 12.28, 12.52 a.u.
 NGXF,Y,Z  is equivalent  to a cutoff of  24.56, 24.56, 25.04 a.u.


 I would recommend the setting:
   dimension x,y,z NGX =    50 NGY =   50 NGZ =   63
 SYSTEM =  unknown system                          
 POSCAR =  Pr4 Se3 O4                              

 Startparameter for this run:
   NWRITE =      2    write-flag & timer
   PREC   = accura    normal or accurate (medium, high low for compatibility)
   ISTART =      0    job   : 0-new  1-cont  2-samecut
   ICHARG =      2    charge: 1-file 2-atom 10-const
   ISPIN  =      2    spin polarized calculation?
   LNONCOLLINEAR =      F non collinear calculations
   LSORBIT =      F    spin-orbit coupling
   INIWAV =      1    electr: 0-lowe 1-rand  2-diag
   LASPH  =      F    aspherical Exc in radial PAW
   METAGGA=      F    non-selfconsistent MetaGGA calc.

 Electronic Relaxation 1
   ENCUT  =  520.0 eV  38.22 Ry    6.18 a.u.  12.59 12.59 15.80*2*pi/ulx,y,z
   ENINI  =  520.0     initial cutoff
   ENAUG  =  605.4 eV  augmentation charge cutoff
   NELM   =    140;   NELMIN=  6; NELMDL= -5     # of ELM steps 
   EDIFF  = 0.1E-03   stopping-criterion for ELM
   LREAL  =      F    real-space projection
   NLSPLINE    = F    spline interpolate recip. space projectors
   LCOMPAT=      F    compatible to vasp.4.4
   GGA_COMPAT  = T    GGA compatible to vasp.4.4-vasp.4.6
   LMAXPAW     = -100 max onsite density
   LMAXMIX     =    6 max onsite mixed and CHGCAR
   VOSKOWN=      0    Vosko Wilk Nusair interpolation
   ROPT   =    0.00000   0.00000   0.00000
 Ionic relaxation
   EDIFFG = -.1E-01   stopping-criterion for IOM
   NSW    =      0    number of steps for IOM
   NBLOCK =      1;   KBLOCK =      1    inner block; outer block 
   IBRION =     -1    ionic relax: 0-MD 1-quasi-New 2-CG
   NFREE  =      0    steps in history (QN), initial steepest desc. (CG)
   ISIF   =      2    stress and relaxation
   IWAVPR =     10    prediction:  0-non 1-charg 2-wave 3-comb
   ISYM   =      2    0-nonsym 1-usesym 2-fastsym
   LCORR  =      T    Harris-Foulkes like correction to forces

   POTIM  = 0.0500    time-step for ionic-motion
   TEIN   =    0.0    initial temperature
   TEBEG  =    0.0;   TEEND  =   0.0 temperature during run
   SMASS  =  -3.00    Nose mass-parameter (am)
   estimated Nose-frequenzy (Omega)   =  0.10E-29 period in steps =****** mass=  -0.105E-26a.u.
   SCALEE = 1.0000    scale energy and forces
   NPACO  =    256;   APACO  = 16.0  distance and # of slots for P.C.
   PSTRESS=    0.0 pullay stress

  Mass of Ions in am
   POMASS = 140.91 78.96 16.00
  Ionic Valenz
   ZVAL   =  11.00  6.00  6.00
  Atomic Wigner-Seitz radii
   RWIGS  =  -1.00 -1.00 -1.00
  virtual crystal weights 
   VCA    =   1.00  1.00  1.00
   NELECT =      86.0000    total number of electrons
   NUPDOWN=      -1.0000    fix difference up-down

 DOS related values:
   EMIN   =  10.00;   EMAX   =-10.00  energy-range for DOS
   EFERMI =   0.00
   ISMEAR =     0;   SIGMA  =   0.05  broadening in eV -4-tet -1-fermi 0-gaus

 Electronic relaxation 2 (details)
   IALGO  =     38    algorithm
   LDIAG  =      T    sub-space diagonalisation (order eigenvalues)
   LSUBROT=      F    optimize rotation matrix (better conditioning)
   TURBO    =      0    0=normal 1=particle mesh
   IRESTART =      0    0=no restart 2=restart with 2 vectors
   NREBOOT  =      0    no. of reboots
   NMIN     =      0    reboot dimension
   EREF     =   0.00    reference energy to select bands
   IMIX   =      4    mixing-type and parameters
     AMIX     =   0.10;   BMIX     =  1.20
     AMIX_MAG =   0.40;   BMIX_MAG =  1.20
     AMIN     =   0.10
     WC   =   100.;   INIMIX=   1;  MIXPRE=   1;  MAXMIX= -45

 Intra band minimization:
   WEIMIN = 0.0000     energy-eigenvalue tresh-hold
   EBREAK =  0.39E-06  absolut break condition
   DEPER  =   0.30     relativ break condition  

   TIME   =   0.40     timestep for ELM

  volume/ion in A,a.u.               =      20.11       135.73
  Fermi-wavevector in a.u.,A,eV,Ry     =   1.194770  2.257788 19.421981  1.427475
  Thomas-Fermi vector in A             =   2.330752
 
 Write flags
   LWAVE  =      F    write WAVECAR
   LCHARG =      T    write CHGCAR
   LVTOT  =      F    write LOCPOT, total local potential
   LVHAR  =      F    write LOCPOT, Hartree potential only
   LELF   =      F    write electronic localiz. function (ELF)
   LORBIT =     11    0 simple, 1 ext, 2 COOP (PROOUT)


 Dipole corrections
   LMONO  =      F    monopole corrections only (constant potential shift)
   LDIPOL =      F    correct potential (dipole corrections)
   IDIPOL =      0    1-x, 2-y, 3-z, 4-all directions 
   EPSILON=  1.0000000 bulk dielectric constant

 LDA+U is selected, type is set to LDAUTYPE =  2
   angular momentum for each species LDAUL =     3   -1   -1
   U (eV)           for each species LDAUU =   5.5  0.0  0.0
   J (eV)           for each species LDAUJ =   0.0  0.0  0.0
 Exchange correlation treatment:
   GGA     =    --    GGA type
   LEXCH   =     8    internal setting for exchange type
   VOSKOWN=      0    Vosko Wilk Nusair interpolation
   LHFCALC =     F    Hartree Fock is set to
   LHFONE  =     F    Hartree Fock one center treatment
   AEXX    =    0.0000 exact exchange contribution

 Linear response parameters
   LEPSILON=     F    determine dielectric tensor
   LRPA    =     F    only Hartree local field effects (RPA)
   LNABLA  =     F    use nabla operator in PAW spheres
   LVEL    =     F    velocity operator in full k-point grid
   LINTERFAST=   F  fast interpolation
   KINTER  =     0    interpolate to denser k-point grid
   CSHIFT  =0.1000    complex shift for real part using Kramers Kronig
   OMEGAMAX=  -1.0    maximum frequency
   DEG_THRESHOLD= 0.2000000E-02 threshold for treating states as degnerate
   RTIME   =    0.100 relaxation time in fs

 Orbital magnetization related:
   ORBITALMAG=     F  switch on orbital magnetization
   LCHIMAG   =     F  perturbation theory with respect to B field
   DQ        =  0.001000  dq finite difference perturbation B field



--------------------------------------------------------------------------------------------------------


 Static calculation
 charge density and potential will be updated during run
 spin polarized calculation
 Variant of blocked Davidson
 Davidson routine will perform the subspace rotation
 perform sub-space diagonalisation
    after iterative eigenvector-optimisation
 modified Broyden-mixing scheme, WC =      100.0
 initial mixing is a Kerker type mixing with AMIX =  0.1000 and BMIX =      1.2000
 Hartree-type preconditioning will be used
 using additional bands           21
 reciprocal scheme for non local part
 use partial core corrections
 calculate Harris-corrections to forces 
   (improved forces if not selfconsistent)
 use gradient corrections 
 use of overlap-Matrix (Vanderbilt PP)
 Gauss-broadening in eV      SIGMA  =   0.05


--------------------------------------------------------------------------------------------------------


  energy-cutoff  :      520.00
  volume of cell :      221.24
      direct lattice vectors                 reciprocal lattice vectors
     2.013900000 -6.462850000  0.000000000     0.248274492 -0.077365249  0.000000000
     2.013900000  6.462850000  0.000000000     0.248274492  0.077365249  0.000000000
     0.000000000  0.000000000  8.499200000     0.000000000  0.000000000  0.117658133

  length of vectors
     6.769359152  6.769359152  8.499200000     0.260049236  0.260049236  0.117658133


 
 k-points in units of 2pi/SCALE and weight: K-Mesh                                  
   0.00000000  0.00000000  0.00000000       0.001
   0.01909804 -0.00595117  0.00000000       0.004
   0.03819608 -0.01190235  0.00000000       0.004
   0.05729411 -0.01785352  0.00000000       0.004
   0.07639215 -0.02380469  0.00000000       0.004
   0.09549019 -0.02975587  0.00000000       0.004
   0.11458823 -0.03570704  0.00000000       0.004
   0.03819608  0.00000000  0.00000000       0.002
   0.05729411 -0.00595117  0.00000000       0.004
   0.07639215 -0.01190235  0.00000000       0.004
   0.09549019 -0.01785352  0.00000000       0.004
   0.11458823 -0.02380469  0.00000000       0.004
   0.13368627 -0.02975587  0.00000000       0.004
  -0.09549019  0.04165821  0.00000000       0.004
  -0.07639215  0.03570704  0.00000000       0.004
  -0.05729411  0.02975587  0.00000000       0.004
  -0.03819608  0.02380469  0.00000000       0.004
  -0.01909804  0.01785352  0.00000000       0.004
   0.00000000  0.01190235  0.00000000       0.002
   0.07639215  0.00000000  0.00000000       0.002
   0.09549019 -0.00595117  0.00000000       0.004
   0.11458823 -0.01190235  0.00000000       0.004
   0.13368627 -0.01785352  0.00000000       0.004
   0.15278430 -0.02380469  0.00000000       0.004
  -0.07639215  0.04760938  0.00000000       0.004
  -0.05729411  0.04165821  0.00000000       0.004
  -0.03819608  0.03570704  0.00000000       0.004
  -0.01909804  0.02975587  0.00000000       0.004
   0.00000000  0.02380469  0.00000000       0.002
   0.11458823  0.00000000  0.00000000       0.002
   0.13368627 -0.00595117  0.00000000       0.004
   0.15278430 -0.01190235  0.00000000       0.004
   0.17188234 -0.01785352  0.00000000       0.004
  -0.05729411  0.05356056  0.00000000       0.004
  -0.03819608  0.04760938  0.00000000       0.004
  -0.01909804  0.04165821  0.00000000       0.004
   0.00000000  0.03570704  0.00000000       0.002
   0.15278430  0.00000000  0.00000000       0.002
   0.17188234 -0.00595117  0.00000000       0.004
   0.19098038 -0.01190235  0.00000000       0.004
  -0.03819608  0.05951173  0.00000000       0.004
  -0.01909804  0.05356056  0.00000000       0.004
   0.00000000  0.04760938  0.00000000       0.002
   0.19098038  0.00000000  0.00000000       0.002
   0.21007842 -0.00595117  0.00000000       0.004
  -0.01909804  0.06546290  0.00000000       0.004
   0.00000000  0.05951173  0.00000000       0.002
   0.22917645  0.00000000  0.00000000       0.002
   0.00000000  0.07141408  0.00000000       0.002
   0.00000000  0.00000000  0.01960969       0.002
   0.01909804 -0.00595117  0.01960969       0.008
   0.03819608 -0.01190235  0.01960969       0.008
   0.05729411 -0.01785352  0.01960969       0.008
   0.07639215 -0.02380469  0.01960969       0.008
   0.09549019 -0.02975587  0.01960969       0.008
   0.11458823 -0.03570704  0.01960969       0.008
   0.03819608  0.00000000  0.01960969       0.004
   0.05729411 -0.00595117  0.01960969       0.008
   0.07639215 -0.01190235  0.01960969       0.008
   0.09549019 -0.01785352  0.01960969       0.008
   0.11458823 -0.02380469  0.01960969       0.008
   0.13368627 -0.02975587  0.01960969       0.008
  -0.09549019  0.04165821  0.01960969       0.008
  -0.07639215  0.03570704  0.01960969       0.008
  -0.05729411  0.02975587  0.01960969       0.008
  -0.03819608  0.02380469  0.01960969       0.008
  -0.01909804  0.01785352  0.01960969       0.008
   0.00000000  0.01190235  0.01960969       0.004
   0.07639215  0.00000000  0.01960969       0.004
   0.09549019 -0.00595117  0.01960969       0.008
   0.11458823 -0.01190235  0.01960969       0.008
   0.13368627 -0.01785352  0.01960969       0.008
   0.15278430 -0.02380469  0.01960969       0.008
  -0.07639215  0.04760938  0.01960969       0.008
  -0.05729411  0.04165821  0.01960969       0.008
  -0.03819608  0.03570704  0.01960969       0.008
  -0.01909804  0.02975587  0.01960969       0.008
   0.00000000  0.02380469  0.01960969       0.004
   0.11458823  0.00000000  0.01960969       0.004
   0.13368627 -0.00595117  0.01960969       0.008
   0.15278430 -0.01190235  0.01960969       0.008
   0.17188234 -0.01785352  0.01960969       0.008
  -0.05729411  0.05356056  0.01960969       0.008
  -0.03819608  0.04760938  0.01960969       0.008
  -0.01909804  0.04165821  0.01960969       0.008
   0.00000000  0.03570704  0.01960969       0.004
   0.15278430  0.00000000  0.01960969       0.004
   0.17188234 -0.00595117  0.01960969       0.008
   0.19098038 -0.01190235  0.01960969       0.008
  -0.03819608  0.05951173  0.01960969       0.008
  -0.01909804  0.05356056  0.01960969       0.008
   0.00000000  0.04760938  0.01960969       0.004
   0.19098038  0.00000000  0.01960969       0.004
   0.21007842 -0.00595117  0.01960969       0.008
  -0.01909804  0.06546290  0.01960969       0.008
   0.00000000  0.05951173  0.01960969       0.004
   0.22917645  0.00000000  0.01960969       0.004
   0.00000000  0.07141408  0.01960969       0.004
   0.00000000  0.00000000  0.03921938       0.002
   0.01909804 -0.00595117  0.03921938       0.008
   0.03819608 -0.01190235  0.03921938       0.008
   0.05729411 -0.01785352  0.03921938       0.008
   0.07639215 -0.02380469  0.03921938       0.008
   0.09549019 -0.02975587  0.03921938       0.008
   0.11458823 -0.03570704  0.03921938       0.008
   0.03819608  0.00000000  0.03921938       0.004
   0.05729411 -0.00595117  0.03921938       0.008
   0.07639215 -0.01190235  0.03921938       0.008
   0.09549019 -0.01785352  0.03921938       0.008
   0.11458823 -0.02380469  0.03921938       0.008
   0.13368627 -0.02975587  0.03921938       0.008
  -0.09549019  0.04165821  0.03921938       0.008
  -0.07639215  0.03570704  0.03921938       0.008
  -0.05729411  0.02975587  0.03921938       0.008
  -0.03819608  0.02380469  0.03921938       0.008
  -0.01909804  0.01785352  0.03921938       0.008
   0.00000000  0.01190235  0.03921938       0.004
   0.07639215  0.00000000  0.03921938       0.004
   0.09549019 -0.00595117  0.03921938       0.008
   0.11458823 -0.01190235  0.03921938       0.008
   0.13368627 -0.01785352  0.03921938       0.008
   0.15278430 -0.02380469  0.03921938       0.008
  -0.07639215  0.04760938  0.03921938       0.008
  -0.05729411  0.04165821  0.03921938       0.008
  -0.03819608  0.03570704  0.03921938       0.008
  -0.01909804  0.02975587  0.03921938       0.008
   0.00000000  0.02380469  0.03921938       0.004
   0.11458823  0.00000000  0.03921938       0.004
   0.13368627 -0.00595117  0.03921938       0.008
   0.15278430 -0.01190235  0.03921938       0.008
   0.17188234 -0.01785352  0.03921938       0.008
  -0.05729411  0.05356056  0.03921938       0.008
  -0.03819608  0.04760938  0.03921938       0.008
  -0.01909804  0.04165821  0.03921938       0.008
   0.00000000  0.03570704  0.03921938       0.004
   0.15278430  0.00000000  0.03921938       0.004
   0.17188234 -0.00595117  0.03921938       0.008
   0.19098038 -0.01190235  0.03921938       0.008
  -0.03819608  0.05951173  0.03921938       0.008
  -0.01909804  0.05356056  0.03921938       0.008
   0.00000000  0.04760938  0.03921938       0.004
   0.19098038  0.00000000  0.03921938       0.004
   0.21007842 -0.00595117  0.03921938       0.008
  -0.01909804  0.06546290  0.03921938       0.008
   0.00000000  0.05951173  0.03921938       0.004
   0.22917645  0.00000000  0.03921938       0.004
   0.00000000  0.07141408  0.03921938       0.004
   0.00000000  0.00000000  0.05882907       0.001
   0.01909804 -0.00595117  0.05882907       0.004
   0.03819608 -0.01190235  0.05882907       0.004
   0.05729411 -0.01785352  0.05882907       0.004
   0.07639215 -0.02380469  0.05882907       0.004
   0.09549019 -0.02975587  0.05882907       0.004
   0.11458823 -0.03570704  0.05882907       0.004
   0.03819608  0.00000000  0.05882907       0.002
   0.05729411 -0.00595117  0.05882907       0.004
   0.07639215 -0.01190235  0.05882907       0.004
   0.09549019 -0.01785352  0.05882907       0.004
   0.11458823 -0.02380469  0.05882907       0.004
   0.13368627 -0.02975587  0.05882907       0.004
  -0.09549019  0.04165821  0.05882907       0.004
  -0.07639215  0.03570704  0.05882907       0.004
  -0.05729411  0.02975587  0.05882907       0.004
  -0.03819608  0.02380469  0.05882907       0.004
  -0.01909804  0.01785352  0.05882907       0.004
   0.00000000  0.01190235  0.05882907       0.002
   0.07639215  0.00000000  0.05882907       0.002
   0.09549019 -0.00595117  0.05882907       0.004
   0.11458823 -0.01190235  0.05882907       0.004
   0.13368627 -0.01785352  0.05882907       0.004
   0.15278430 -0.02380469  0.05882907       0.004
  -0.07639215  0.04760938  0.05882907       0.004
  -0.05729411  0.04165821  0.05882907       0.004
  -0.03819608  0.03570704  0.05882907       0.004
  -0.01909804  0.02975587  0.05882907       0.004
   0.00000000  0.02380469  0.05882907       0.002
   0.11458823  0.00000000  0.05882907       0.002
   0.13368627 -0.00595117  0.05882907       0.004
   0.15278430 -0.01190235  0.05882907       0.004
   0.17188234 -0.01785352  0.05882907       0.004
  -0.05729411  0.05356056  0.05882907       0.004
  -0.03819608  0.04760938  0.05882907       0.004
  -0.01909804  0.04165821  0.05882907       0.004
   0.00000000  0.03570704  0.05882907       0.002
   0.15278430  0.00000000  0.05882907       0.002
   0.17188234 -0.00595117  0.05882907       0.004
   0.19098038 -0.01190235  0.05882907       0.004
  -0.03819608  0.05951173  0.05882907       0.004
  -0.01909804  0.05356056  0.05882907       0.004
   0.00000000  0.04760938  0.05882907       0.002
   0.19098038  0.00000000  0.05882907       0.002
   0.21007842 -0.00595117  0.05882907       0.004
  -0.01909804  0.06546290  0.05882907       0.004
   0.00000000  0.05951173  0.05882907       0.002
   0.22917645  0.00000000  0.05882907       0.002
   0.00000000  0.07141408  0.05882907       0.002
 
 k-points in reciprocal lattice and weights: K-Mesh                                  
   0.00000000  0.00000000  0.00000000       0.001
   0.07692308  0.00000000  0.00000000       0.004
   0.15384615  0.00000000  0.00000000       0.004
   0.23076923  0.00000000  0.00000000       0.004
   0.30769231  0.00000000  0.00000000       0.004
   0.38461538  0.00000000  0.00000000       0.004
   0.46153846  0.00000000  0.00000000       0.004
   0.07692308  0.07692308  0.00000000       0.002
   0.15384615  0.07692308  0.00000000       0.004
   0.23076923  0.07692308  0.00000000       0.004
   0.30769231  0.07692308  0.00000000       0.004
   0.38461538  0.07692308  0.00000000       0.004
   0.46153846  0.07692308  0.00000000       0.004
  -0.46153846  0.07692308  0.00000000       0.004
  -0.38461538  0.07692308  0.00000000       0.004
  -0.30769231  0.07692308  0.00000000       0.004
  -0.23076923  0.07692308  0.00000000       0.004
  -0.15384615  0.07692308  0.00000000       0.004
  -0.07692308  0.07692308  0.00000000       0.002
   0.15384615  0.15384615  0.00000000       0.002
   0.23076923  0.15384615  0.00000000       0.004
   0.30769231  0.15384615  0.00000000       0.004
   0.38461538  0.15384615  0.00000000       0.004
   0.46153846  0.15384615  0.00000000       0.004
  -0.46153846  0.15384615  0.00000000       0.004
  -0.38461538  0.15384615  0.00000000       0.004
  -0.30769231  0.15384615  0.00000000       0.004
  -0.23076923  0.15384615  0.00000000       0.004
  -0.15384615  0.15384615  0.00000000       0.002
   0.23076923  0.23076923  0.00000000       0.002
   0.30769231  0.23076923  0.00000000       0.004
   0.38461538  0.23076923  0.00000000       0.004
   0.46153846  0.23076923  0.00000000       0.004
  -0.46153846  0.23076923  0.00000000       0.004
  -0.38461538  0.23076923  0.00000000       0.004
  -0.30769231  0.23076923  0.00000000       0.004
  -0.23076923  0.23076923  0.00000000       0.002
   0.30769231  0.30769231  0.00000000       0.002
   0.38461538  0.30769231  0.00000000       0.004
   0.46153846  0.30769231  0.00000000       0.004
  -0.46153846  0.30769231  0.00000000       0.004
  -0.38461538  0.30769231  0.00000000       0.004
  -0.30769231  0.30769231  0.00000000       0.002
   0.38461538  0.38461538  0.00000000       0.002
   0.46153846  0.38461538  0.00000000       0.004
  -0.46153846  0.38461538  0.00000000       0.004
  -0.38461538  0.38461538  0.00000000       0.002
   0.46153846  0.46153846  0.00000000       0.002
  -0.46153846  0.46153846  0.00000000       0.002
   0.00000000  0.00000000  0.16666667       0.002
   0.07692308  0.00000000  0.16666667       0.008
   0.15384615  0.00000000  0.16666667       0.008
   0.23076923  0.00000000  0.16666667       0.008
   0.30769231  0.00000000  0.16666667       0.008
   0.38461538  0.00000000  0.16666667       0.008
   0.46153846  0.00000000  0.16666667       0.008
   0.07692308  0.07692308  0.16666667       0.004
   0.15384615  0.07692308  0.16666667       0.008
   0.23076923  0.07692308  0.16666667       0.008
   0.30769231  0.07692308  0.16666667       0.008
   0.38461538  0.07692308  0.16666667       0.008
   0.46153846  0.07692308  0.16666667       0.008
  -0.46153846  0.07692308  0.16666667       0.008
  -0.38461538  0.07692308  0.16666667       0.008
  -0.30769231  0.07692308  0.16666667       0.008
  -0.23076923  0.07692308  0.16666667       0.008
  -0.15384615  0.07692308  0.16666667       0.008
  -0.07692308  0.07692308  0.16666667       0.004
   0.15384615  0.15384615  0.16666667       0.004
   0.23076923  0.15384615  0.16666667       0.008
   0.30769231  0.15384615  0.16666667       0.008
   0.38461538  0.15384615  0.16666667       0.008
   0.46153846  0.15384615  0.16666667       0.008
  -0.46153846  0.15384615  0.16666667       0.008
  -0.38461538  0.15384615  0.16666667       0.008
  -0.30769231  0.15384615  0.16666667       0.008
  -0.23076923  0.15384615  0.16666667       0.008
  -0.15384615  0.15384615  0.16666667       0.004
   0.23076923  0.23076923  0.16666667       0.004
   0.30769231  0.23076923  0.16666667       0.008
   0.38461538  0.23076923  0.16666667       0.008
   0.46153846  0.23076923  0.16666667       0.008
  -0.46153846  0.23076923  0.16666667       0.008
  -0.38461538  0.23076923  0.16666667       0.008
  -0.30769231  0.23076923  0.16666667       0.008
  -0.23076923  0.23076923  0.16666667       0.004
   0.30769231  0.30769231  0.16666667       0.004
   0.38461538  0.30769231  0.16666667       0.008
   0.46153846  0.30769231  0.16666667       0.008
  -0.46153846  0.30769231  0.16666667       0.008
  -0.38461538  0.30769231  0.16666667       0.008
  -0.30769231  0.30769231  0.16666667       0.004
   0.38461538  0.38461538  0.16666667       0.004
   0.46153846  0.38461538  0.16666667       0.008
  -0.46153846  0.38461538  0.16666667       0.008
  -0.38461538  0.38461538  0.16666667       0.004
   0.46153846  0.46153846  0.16666667       0.004
  -0.46153846  0.46153846  0.16666667       0.004
   0.00000000  0.00000000  0.33333333       0.002
   0.07692308  0.00000000  0.33333333       0.008
   0.15384615  0.00000000  0.33333333       0.008
   0.23076923  0.00000000  0.33333333       0.008
   0.30769231  0.00000000  0.33333333       0.008
   0.38461538  0.00000000  0.33333333       0.008
   0.46153846  0.00000000  0.33333333       0.008
   0.07692308  0.07692308  0.33333333       0.004
   0.15384615  0.07692308  0.33333333       0.008
   0.23076923  0.07692308  0.33333333       0.008
   0.30769231  0.07692308  0.33333333       0.008
   0.38461538  0.07692308  0.33333333       0.008
   0.46153846  0.07692308  0.33333333       0.008
  -0.46153846  0.07692308  0.33333333       0.008
  -0.38461538  0.07692308  0.33333333       0.008
  -0.30769231  0.07692308  0.33333333       0.008
  -0.23076923  0.07692308  0.33333333       0.008
  -0.15384615  0.07692308  0.33333333       0.008
  -0.07692308  0.07692308  0.33333333       0.004
   0.15384615  0.15384615  0.33333333       0.004
   0.23076923  0.15384615  0.33333333       0.008
   0.30769231  0.15384615  0.33333333       0.008
   0.38461538  0.15384615  0.33333333       0.008
   0.46153846  0.15384615  0.33333333       0.008
  -0.46153846  0.15384615  0.33333333       0.008
  -0.38461538  0.15384615  0.33333333       0.008
  -0.30769231  0.15384615  0.33333333       0.008
  -0.23076923  0.15384615  0.33333333       0.008
  -0.15384615  0.15384615  0.33333333       0.004
   0.23076923  0.23076923  0.33333333       0.004
   0.30769231  0.23076923  0.33333333       0.008
   0.38461538  0.23076923  0.33333333       0.008
   0.46153846  0.23076923  0.33333333       0.008
  -0.46153846  0.23076923  0.33333333       0.008
  -0.38461538  0.23076923  0.33333333       0.008
  -0.30769231  0.23076923  0.33333333       0.008
  -0.23076923  0.23076923  0.33333333       0.004
   0.30769231  0.30769231  0.33333333       0.004
   0.38461538  0.30769231  0.33333333       0.008
   0.46153846  0.30769231  0.33333333       0.008
  -0.46153846  0.30769231  0.33333333       0.008
  -0.38461538  0.30769231  0.33333333       0.008
  -0.30769231  0.30769231  0.33333333       0.004
   0.38461538  0.38461538  0.33333333       0.004
   0.46153846  0.38461538  0.33333333       0.008
  -0.46153846  0.38461538  0.33333333       0.008
  -0.38461538  0.38461538  0.33333333       0.004
   0.46153846  0.46153846  0.33333333       0.004
  -0.46153846  0.46153846  0.33333333       0.004
   0.00000000  0.00000000  0.50000000       0.001
   0.07692308  0.00000000  0.50000000       0.004
   0.15384615  0.00000000  0.50000000       0.004
   0.23076923  0.00000000  0.50000000       0.004
   0.30769231  0.00000000  0.50000000       0.004
   0.38461538  0.00000000  0.50000000       0.004
   0.46153846  0.00000000  0.50000000       0.004
   0.07692308  0.07692308  0.50000000       0.002
   0.15384615  0.07692308  0.50000000       0.004
   0.23076923  0.07692308  0.50000000       0.004
   0.30769231  0.07692308  0.50000000       0.004
   0.38461538  0.07692308  0.50000000       0.004
   0.46153846  0.07692308  0.50000000       0.004
  -0.46153846  0.07692308  0.50000000       0.004
  -0.38461538  0.07692308  0.50000000       0.004
  -0.30769231  0.07692308  0.50000000       0.004
  -0.23076923  0.07692308  0.50000000       0.004
  -0.15384615  0.07692308  0.50000000       0.004
  -0.07692308  0.07692308  0.50000000       0.002
   0.15384615  0.15384615  0.50000000       0.002
   0.23076923  0.15384615  0.50000000       0.004
   0.30769231  0.15384615  0.50000000       0.004
   0.38461538  0.15384615  0.50000000       0.004
   0.46153846  0.15384615  0.50000000       0.004
  -0.46153846  0.15384615  0.50000000       0.004
  -0.38461538  0.15384615  0.50000000       0.004
  -0.30769231  0.15384615  0.50000000       0.004
  -0.23076923  0.15384615  0.50000000       0.004
  -0.15384615  0.15384615  0.50000000       0.002
   0.23076923  0.23076923  0.50000000       0.002
   0.30769231  0.23076923  0.50000000       0.004
   0.38461538  0.23076923  0.50000000       0.004
   0.46153846  0.23076923  0.50000000       0.004
  -0.46153846  0.23076923  0.50000000       0.004
  -0.38461538  0.23076923  0.50000000       0.004
  -0.30769231  0.23076923  0.50000000       0.004
  -0.23076923  0.23076923  0.50000000       0.002
   0.30769231  0.30769231  0.50000000       0.002
   0.38461538  0.30769231  0.50000000       0.004
   0.46153846  0.30769231  0.50000000       0.004
  -0.46153846  0.30769231  0.50000000       0.004
  -0.38461538  0.30769231  0.50000000       0.004
  -0.30769231  0.30769231  0.50000000       0.002
   0.38461538  0.38461538  0.50000000       0.002
   0.46153846  0.38461538  0.50000000       0.004
  -0.46153846  0.38461538  0.50000000       0.004
  -0.38461538  0.38461538  0.50000000       0.002
   0.46153846  0.46153846  0.50000000       0.002
  -0.46153846  0.46153846  0.50000000       0.002
 
 position of ions in fractional coordinates (direct lattice) 
   0.00000000  0.00000000  0.00000000
   0.98126000  0.01874000  0.50000000
   0.31518000  0.68482000  0.23639000
   0.31518000  0.68482000  0.76361000
   0.64330000  0.35670000  0.35500000
   0.64330000  0.35670000  0.64500000
   0.68920000  0.31080000  0.00000000
   0.91050000  0.08950000  0.24340000
   0.91050000  0.08950000  0.75660000
   0.41470000  0.58530000  0.00000000
   0.38220000  0.61780000  0.50000000
 
 position of ions in cartesian coordinates  (Angst):
   0.00000000  0.00000000  0.00000000
   2.01390000 -6.22062238  4.24960000
   2.01390000  2.38892787  2.00912589
   2.01390000  2.38892787  6.49007411
   2.01390000 -1.85225281  3.01721600
   2.01390000 -1.85225281  5.48198400
   2.01390000 -2.44554244  0.00000000
   2.01390000 -5.30599985  2.06870528
   2.01390000 -5.30599985  6.43049472
   2.01390000  1.10256221  0.00000000
   2.01390000  1.52264746  4.24960000
 


--------------------------------------------------------------------------------------------------------


 k-point  1 :   0.0000 0.0000 0.0000  plane waves:    6013
 k-point  2 :   0.0769 0.0000 0.0000  plane waves:    5987
 k-point  3 :   0.1538 0.0000 0.0000  plane waves:    5980
 k-point  4 :   0.2308 0.0000 0.0000  plane waves:    5960
 k-point  5 :   0.3077 0.0000 0.0000  plane waves:    5948
 k-point  6 :   0.3846 0.0000 0.0000  plane waves:    5940
 k-point  7 :   0.4615 0.0000 0.0000  plane waves:    5929
 k-point  8 :   0.0769 0.0769 0.0000  plane waves:    5967
 k-point  9 :   0.1538 0.0769 0.0000  plane waves:    5952
 k-point 10 :   0.2308 0.0769 0.0000  plane waves:    5941
 k-point 11 :   0.3077 0.0769 0.0000  plane waves:    5938
 k-point 12 :   0.3846 0.0769 0.0000  plane waves:    5921
 k-point 13 :   0.4615 0.0769 0.0000  plane waves:    5930
 k-point 14 :  -0.4615 0.0769 0.0000  plane waves:    5956
 k-point 15 :  -0.3846 0.0769 0.0000  plane waves:    5962
 k-point 16 :  -0.3077 0.0769 0.0000  plane waves:    5970
 k-point 17 :  -0.2308 0.0769 0.0000  plane waves:    5977
 k-point 18 :  -0.1538 0.0769 0.0000  plane waves:    5983
 k-point 19 :  -0.0769 0.0769 0.0000  plane waves:    5994
 k-point 20 :   0.1538 0.1538 0.0000  plane waves:    5961
 k-point 21 :   0.2308 0.1538 0.0000  plane waves:    5945
 k-point 22 :   0.3077 0.1538 0.0000  plane waves:    5930
 k-point 23 :   0.3846 0.1538 0.0000  plane waves:    5917
 k-point 24 :   0.4615 0.1538 0.0000  plane waves:    5932
 k-point 25 :  -0.4615 0.1538 0.0000  plane waves:    5961
 k-point 26 :  -0.3846 0.1538 0.0000  plane waves:    5963
 k-point 27 :  -0.3077 0.1538 0.0000  plane waves:    5984
 k-point 28 :  -0.2308 0.1538 0.0000  plane waves:    5975
 k-point 29 :  -0.1538 0.1538 0.0000  plane waves:    5956
 k-point 30 :   0.2308 0.2308 0.0000  plane waves:    5933
 k-point 31 :   0.3077 0.2308 0.0000  plane waves:    5926
 k-point 32 :   0.3846 0.2308 0.0000  plane waves:    5939
 k-point 33 :   0.4615 0.2308 0.0000  plane waves:    5964
 k-point 34 :  -0.4615 0.2308 0.0000  plane waves:    5964
 k-point 35 :  -0.3846 0.2308 0.0000  plane waves:    5976
 k-point 36 :  -0.3077 0.2308 0.0000  plane waves:    5978
 k-point 37 :  -0.2308 0.2308 0.0000  plane waves:    5968
 k-point 38 :   0.3077 0.3077 0.0000  plane waves:    5938
 k-point 39 :   0.3846 0.3077 0.0000  plane waves:    5960
 k-point 40 :   0.4615 0.3077 0.0000  plane waves:    5974
 k-point 41 :  -0.4615 0.3077 0.0000  plane waves:    5957
 k-point 42 :  -0.3846 0.3077 0.0000  plane waves:    5963
 k-point 43 :  -0.3077 0.3077 0.0000  plane waves:    5974
 k-point 44 :   0.3846 0.3846 0.0000  plane waves:    5962
 k-point 45 :   0.4615 0.3846 0.0000  plane waves:    5956
 k-point 46 :  -0.4615 0.3846 0.0000  plane waves:    5970
 k-point 47 :  -0.3846 0.3846 0.0000  plane waves:    5980
 k-point 48 :   0.4615 0.4615 0.0000  plane waves:    5976
 k-point 49 :  -0.4615 0.4615 0.0000  plane waves:    5974
 k-point 50 :   0.0000 0.0000 0.1667  plane waves:    5985
 k-point 51 :   0.0769 0.0000 0.1667  plane waves:    5981
 k-point 52 :   0.1538 0.0000 0.1667  plane waves:    5977
 k-point 53 :   0.2308 0.0000 0.1667  plane waves:    5957
 k-point 54 :   0.3077 0.0000 0.1667  plane waves:    5946
 k-point 55 :   0.3846 0.0000 0.1667  plane waves:    5947
 k-point 56 :   0.4615 0.0000 0.1667  plane waves:    5928
 k-point 57 :   0.0769 0.0769 0.1667  plane waves:    5979
 k-point 58 :   0.1538 0.0769 0.1667  plane waves:    5964
 k-point 59 :   0.2308 0.0769 0.1667  plane waves:    5954
 k-point 60 :   0.3077 0.0769 0.1667  plane waves:    5947
 k-point 61 :   0.3846 0.0769 0.1667  plane waves:    5935
 k-point 62 :   0.4615 0.0769 0.1667  plane waves:    5929
 k-point 63 :  -0.4615 0.0769 0.1667  plane waves:    5942
 k-point 64 :  -0.3846 0.0769 0.1667  plane waves:    5955
 k-point 65 :  -0.3077 0.0769 0.1667  plane waves:    5956
 k-point 66 :  -0.2308 0.0769 0.1667  plane waves:    5981
 k-point 67 :  -0.1538 0.0769 0.1667  plane waves:    5983
 k-point 68 :  -0.0769 0.0769 0.1667  plane waves:    5985
 k-point 69 :   0.1538 0.1538 0.1667  plane waves:    5963
 k-point 70 :   0.2308 0.1538 0.1667  plane waves:    5941
 k-point 71 :   0.3077 0.1538 0.1667  plane waves:    5945
 k-point 72 :   0.3846 0.1538 0.1667  plane waves:    5927
 k-point 73 :   0.4615 0.1538 0.1667  plane waves:    5943
 k-point 74 :  -0.4615 0.1538 0.1667  plane waves:    5962
 k-point 75 :  -0.3846 0.1538 0.1667  plane waves:    5956
 k-point 76 :  -0.3077 0.1538 0.1667  plane waves:    5974
 k-point 77 :  -0.2308 0.1538 0.1667  plane waves:    5983
 k-point 78 :  -0.1538 0.1538 0.1667  plane waves:    5973
 k-point 79 :   0.2308 0.2308 0.1667  plane waves:    5934
 k-point 80 :   0.3077 0.2308 0.1667  plane waves:    5934
 k-point 81 :   0.3846 0.2308 0.1667  plane waves:    5942
 k-point 82 :   0.4615 0.2308 0.1667  plane waves:    5959
 k-point 83 :  -0.4615 0.2308 0.1667  plane waves:    5960
 k-point 84 :  -0.3846 0.2308 0.1667  plane waves:    5969
 k-point 85 :  -0.3077 0.2308 0.1667  plane waves:    5977
 k-point 86 :  -0.2308 0.2308 0.1667  plane waves:    5968
 k-point 87 :   0.3077 0.3077 0.1667  plane waves:    5942
 k-point 88 :   0.3846 0.3077 0.1667  plane waves:    5945
 k-point 89 :   0.4615 0.3077 0.1667  plane waves:    5966
 k-point 90 :  -0.4615 0.3077 0.1667  plane waves:    5955
 k-point 91 :  -0.3846 0.3077 0.1667  plane waves:    5965
 k-point 92 :  -0.3077 0.3077 0.1667  plane waves:    5971
 k-point 93 :   0.3846 0.3846 0.1667  plane waves:    5955
 k-point 94 :   0.4615 0.3846 0.1667  plane waves:    5940
 k-point 95 :  -0.4615 0.3846 0.1667  plane waves:    5952
 k-point 96 :  -0.3846 0.3846 0.1667  plane waves:    5969
 k-point 97 :   0.4615 0.4615 0.1667  plane waves:    5960
 k-point 98 :  -0.4615 0.4615 0.1667  plane waves:    5971
 k-point 99 :   0.0000 0.0000 0.3333  plane waves:    5980
 k-point ** :   0.0769 0.0000 0.3333  plane waves:    5981
 k-point ** :   0.1538 0.0000 0.3333  plane waves:    5965
 k-point ** :   0.2308 0.0000 0.3333  plane waves:    5971
 k-point ** :   0.3077 0.0000 0.3333  plane waves:    5959
 k-point ** :   0.3846 0.0000 0.3333  plane waves:    5950
 k-point ** :   0.4615 0.0000 0.3333  plane waves:    5945
 k-point ** :   0.0769 0.0769 0.3333  plane waves:    5975
 k-point ** :   0.1538 0.0769 0.3333  plane waves:    5969
 k-point ** :   0.2308 0.0769 0.3333  plane waves:    5963
 k-point ** :   0.3077 0.0769 0.3333  plane waves:    5954
 k-point ** :   0.3846 0.0769 0.3333  plane waves:    5944
 k-point ** :   0.4615 0.0769 0.3333  plane waves:    5940
 k-point ** :  -0.4615 0.0769 0.3333  plane waves:    5957
 k-point ** :  -0.3846 0.0769 0.3333  plane waves:    5960
 k-point ** :  -0.3077 0.0769 0.3333  plane waves:    5965
 k-point ** :  -0.2308 0.0769 0.3333  plane waves:    5964
 k-point ** :  -0.1538 0.0769 0.3333  plane waves:    5977
 k-point ** :  -0.0769 0.0769 0.3333  plane waves:    5980
 k-point ** :   0.1538 0.1538 0.3333  plane waves:    5948
 k-point ** :   0.2308 0.1538 0.3333  plane waves:    5944
 k-point ** :   0.3077 0.1538 0.3333  plane waves:    5937
 k-point ** :   0.3846 0.1538 0.3333  plane waves:    5945
 k-point ** :   0.4615 0.1538 0.3333  plane waves:    5957
 k-point ** :  -0.4615 0.1538 0.3333  plane waves:    5949
 k-point ** :  -0.3846 0.1538 0.3333  plane waves:    5963
 k-point ** :  -0.3077 0.1538 0.3333  plane waves:    5965
 k-point ** :  -0.2308 0.1538 0.3333  plane waves:    5980
 k-point ** :  -0.1538 0.1538 0.3333  plane waves:    5974
 k-point ** :   0.2308 0.2308 0.3333  plane waves:    5944
 k-point ** :   0.3077 0.2308 0.3333  plane waves:    5942
 k-point ** :   0.3846 0.2308 0.3333  plane waves:    5947
 k-point ** :   0.4615 0.2308 0.3333  plane waves:    5956
 k-point ** :  -0.4615 0.2308 0.3333  plane waves:    5949
 k-point ** :  -0.3846 0.2308 0.3333  plane waves:    5959
 k-point ** :  -0.3077 0.2308 0.3333  plane waves:    5965
 k-point ** :  -0.2308 0.2308 0.3333  plane waves:    5970
 k-point ** :   0.3077 0.3077 0.3333  plane waves:    5932
 k-point ** :   0.3846 0.3077 0.3333  plane waves:    5951
 k-point ** :   0.4615 0.3077 0.3333  plane waves:    5959
 k-point ** :  -0.4615 0.3077 0.3333  plane waves:    5954
 k-point ** :  -0.3846 0.3077 0.3333  plane waves:    5960
 k-point ** :  -0.3077 0.3077 0.3333  plane waves:    5974
 k-point ** :   0.3846 0.3846 0.3333  plane waves:    5953
 k-point ** :   0.4615 0.3846 0.3333  plane waves:    5967
 k-point ** :  -0.4615 0.3846 0.3333  plane waves:    5942
 k-point ** :  -0.3846 0.3846 0.3333  plane waves:    5960
 k-point ** :   0.4615 0.4615 0.3333  plane waves:    5940
 k-point ** :  -0.4615 0.4615 0.3333  plane waves:    5941
 k-point ** :   0.0000 0.0000 0.5000  plane waves:    5984
 k-point ** :   0.0769 0.0000 0.5000  plane waves:    5980
 k-point ** :   0.1538 0.0000 0.5000  plane waves:    5974
 k-point ** :   0.2308 0.0000 0.5000  plane waves:    5982
 k-point ** :   0.3077 0.0000 0.5000  plane waves:    5968
 k-point ** :   0.3846 0.0000 0.5000  plane waves:    5946
 k-point ** :   0.4615 0.0000 0.5000  plane waves:    5940
 k-point ** :   0.0769 0.0769 0.5000  plane waves:    5960
 k-point ** :   0.1538 0.0769 0.5000  plane waves:    5964
 k-point ** :   0.2308 0.0769 0.5000  plane waves:    5948
 k-point ** :   0.3077 0.0769 0.5000  plane waves:    5950
 k-point ** :   0.3846 0.0769 0.5000  plane waves:    5938
 k-point ** :   0.4615 0.0769 0.5000  plane waves:    5936
 k-point ** :  -0.4615 0.0769 0.5000  plane waves:    5934
 k-point ** :  -0.3846 0.0769 0.5000  plane waves:    5954
 k-point ** :  -0.3077 0.0769 0.5000  plane waves:    5960
 k-point ** :  -0.2308 0.0769 0.5000  plane waves:    5976
 k-point ** :  -0.1538 0.0769 0.5000  plane waves:    5984
 k-point ** :  -0.0769 0.0769 0.5000  plane waves:    5988
 k-point ** :   0.1538 0.1538 0.5000  plane waves:    5944
 k-point ** :   0.2308 0.1538 0.5000  plane waves:    5940
 k-point ** :   0.3077 0.1538 0.5000  plane waves:    5948
 k-point ** :   0.3846 0.1538 0.5000  plane waves:    5950
 k-point ** :   0.4615 0.1538 0.5000  plane waves:    5940
 k-point ** :  -0.4615 0.1538 0.5000  plane waves:    5966
 k-point ** :  -0.3846 0.1538 0.5000  plane waves:    5964
 k-point ** :  -0.3077 0.1538 0.5000  plane waves:    5978
 k-point ** :  -0.2308 0.1538 0.5000  plane waves:    5980
 k-point ** :  -0.1538 0.1538 0.5000  plane waves:    5972
 k-point ** :   0.2308 0.2308 0.5000  plane waves:    5936
 k-point ** :   0.3077 0.2308 0.5000  plane waves:    5948
 k-point ** :   0.3846 0.2308 0.5000  plane waves:    5958
 k-point ** :   0.4615 0.2308 0.5000  plane waves:    5960
 k-point ** :  -0.4615 0.2308 0.5000  plane waves:    5962
 k-point ** :  -0.3846 0.2308 0.5000  plane waves:    5954
 k-point ** :  -0.3077 0.2308 0.5000  plane waves:    5976
 k-point ** :  -0.2308 0.2308 0.5000  plane waves:    5974
 k-point ** :   0.3077 0.3077 0.5000  plane waves:    5960
 k-point ** :   0.3846 0.3077 0.5000  plane waves:    5962
 k-point ** :   0.4615 0.3077 0.5000  plane waves:    5964
 k-point ** :  -0.4615 0.3077 0.5000  plane waves:    5954
 k-point ** :  -0.3846 0.3077 0.5000  plane waves:    5946
 k-point ** :  -0.3077 0.3077 0.5000  plane waves:    5958
 k-point ** :   0.3846 0.3846 0.5000  plane waves:    5982
 k-point ** :   0.4615 0.3846 0.5000  plane waves:    5960
 k-point ** :  -0.4615 0.3846 0.5000  plane waves:    5940
 k-point ** :  -0.3846 0.3846 0.5000  plane waves:    5934
 k-point ** :   0.4615 0.4615 0.5000  plane waves:    5952
 k-point ** :  -0.4615 0.4615 0.5000  plane waves:    5930

 maximum and minimum number of plane-waves per node :       516      479

 maximum number of plane-waves:      6013
 maximum index in each direction: 
   IXMAX=   13   IYMAX=   12   IZMAX=   15
   IXMIN=  -13   IYMIN=  -13   IZMIN=  -16

 WARNING: aliasing errors must be expected set NGX to  54 to avoid them
 WARNING: aliasing errors must be expected set NGY to  52 to avoid them
 NGZ is ok and might be reduce to  64
 aliasing errors are usually negligible using standard VASP settings
 and one can safely disregard these warnings

 parallel 3D FFT for wavefunctions:
    minimum data exchange during FFTs selected (reduces bandwidth)
 parallel 3D FFT for charge:
    minimum data exchange during FFTs selected (reduces bandwidth)


 total amount of memory used by VASP on root node   107121. kBytes
========================================================================

   base      :      30000. kBytes
   nonl-proj :      43442. kBytes
   fftplans  :       3185. kBytes
   grid      :       3569. kBytes
   one-center:         31. kBytes
   wavefun   :      26894. kBytes
 
     INWAV:  cpu time    0.0000: real time    0.0000
 Broyden mixing: mesh for mixing (old mesh)
   NGX = 25   NGY = 25   NGZ = 31
  (NGX  =100   NGY  =100   NGZ  =128)
  gives a total of  19375 points

 initial charge density was supplied:
 charge density of overlapping atoms calculated
 number of electron      86.0000000 magnetization      11.0000000
 keeping initial charge density in first step


--------------------------------------------------------------------------------------------------------


 Maximum index for augmentation-charges         9580 (set IRDMAX)


--------------------------------------------------------------------------------------------------------


 First call to EWALD:  gamma=   0.293
 Maximum number of real-space cells 4x 4x 2
 Maximum number of reciprocal cells 3x 3x 4

 FEWALD executed in parallel
    FEWALD:  cpu time    0.0480: real time    0.0517


----------------------------------------- Iteration    1(   1)  ---------------------------------------


    POTLOK:  cpu time    0.5969: real time    0.6210
    SETDIJ:  cpu time    0.3250: real time    0.3355
     EDDAV:  cpu time   28.8626: real time   29.3316
       DOS:  cpu time    0.0160: real time    0.0275
    --------------------------------------------
      LOOP:  cpu time   29.8315: real time   30.3594

 eigenvalue-minimisations  : 50176
 total energy-change (2. order) : 0.6801487E+03  (-0.4112519E+04)
 number of electron      86.0000000 magnetization      11.0000000
 augmentation part       86.0000000 magnetization      11.0000000

 Free energy of the ion-electron system (eV)
  ---------------------------------------------------
  alpha Z        PSCENC =       488.05999556
  Ewald energy   TEWEN  =     -4855.05471902
  -Hartree energ DENC   =     -1411.46334746
  -exchange      EXHF   =         0.00000000
  -V(xc)+E(xc)   XCENC  =       225.47004247
  PAW double counting   =      4820.39582226    -4678.46053781
  entropy T*S    EENTRO =        -0.00392730
  eigenvalues    EBANDS =       -61.00871054
  atomic energy  EATOM  =      6152.21410355
  Solvation  Ediel_sol  =         0.00000000
  ---------------------------------------------------
  free energy    TOTEN  =       680.14872169 eV

  energy without entropy =      680.15264900  energy(sigma->0) =      680.15068534


--------------------------------------------------------------------------------------------------------




[...]
     61       9.9978      0.00000
     62      10.7043      0.00000
     63      10.7706      0.00000
     64      10.9933      0.00000

 k-point   196 :      -0.4615    0.4615    0.5000
  band No.  band energies     occupation 
      1     -31.7910      1.00000
      2     -31.7672      1.00000
      3     -31.6974      1.00000
      4     -31.6655      1.00000
      5     -15.8476      1.00000
      6     -15.6403      1.00000
      7     -15.1306      1.00000
      8     -15.0707      1.00000
      9     -13.8311      1.00000
     10     -13.7875      1.00000
     11     -13.6837      1.00000
     12     -13.6677      1.00000
     13     -13.6200      1.00000
     14     -13.6114      1.00000
     15     -13.5581      1.00000
     16     -13.5251      1.00000
     17     -12.5081      1.00000
     18     -12.4677      1.00000
     19     -11.6535      1.00000
     20     -11.5347      1.00000
     21      -9.7939      1.00000
     22      -8.4203      1.00000
     23      -7.2464      1.00000
     24      -1.3664      1.00000
     25      -0.2296      1.00000
     26      -0.1626      1.00000
     27      -0.1332      1.00000
     28      -0.1187      1.00000
     29      -0.0267      1.00000
     30       0.0062      1.00000
     31       0.1502      1.00000
     32       0.3048      1.00000
     33       0.3810      1.00000
     34       0.7784      1.00000
     35       0.8536      1.00000
     36       0.8677      1.00000
     37       1.6257      1.00000
     38       1.6856      1.00000
     39       2.0982      1.00000
     40       2.3507      1.00000
     41       2.3688      1.00000
     42       3.1616      1.00000
     43       3.2875      1.00000
     44       5.1262      0.00000
     45       6.1533      0.00000
     46       6.4830      0.00000
     47       7.1644      0.00000
     48       7.3334      0.00000
     49       7.4381      0.00000
     50       7.6276      0.00000
     51       8.0094      0.00000
     52       8.5119      0.00000
     53       8.5874      0.00000
     54       8.6146      0.00000
     55       8.6551      0.00000
     56       8.6809      0.00000
     57       9.0494      0.00000
     58       9.1331      0.00000
     59       9.1530      0.00000
     60       9.9756      0.00000
     61       9.9860      0.00000
     62      10.5892      0.00000
     63      10.7978      0.00000
     64      10.9700      0.00000


--------------------------------------------------------------------------------------------------------


 soft charge-density along one line, spin component           1
         0         1         2         3         4         5         6         7         8         9
 total charge-density along one line
 
 soft charge-density along one line, spin component           2
         0         1         2         3         4         5         6         7         8         9
 total charge-density along one line
 
 pseudopotential strength for first ion, spin component:           1
 -9.794  -7.365   0.012  -0.000   0.000  -0.029   0.000  -0.000
 -7.365   1.211   0.014  -0.000   0.000  -0.001   0.000  -0.000
  0.012   0.014 -12.322  -0.000   0.000   4.911   0.000  -0.000
 -0.000  -0.000  -0.000 -12.323  -0.000   0.000   4.911   0.000
  0.000   0.000   0.000  -0.000 -12.302  -0.000   0.000   4.880
 -0.029  -0.001   4.911   0.000  -0.000   7.893  -0.000   0.000
  0.000   0.000   0.000   4.911   0.000  -0.000   7.890  -0.000
 -0.000  -0.000  -0.000   0.000   4.880   0.000  -0.000   7.909
  0.000   0.000   0.000   0.000   0.005  -0.000  -0.000  -0.020
 -0.000  -0.000  -0.000   0.005   0.000   0.000  -0.024  -0.000
 -0.003  -0.003  -0.002  -0.000  -0.000   0.005   0.000   0.000
 -0.000  -0.000   0.000   0.000  -0.000  -0.000  -0.000   0.000
  0.005   0.005  -0.005   0.000   0.000   0.012  -0.000  -0.000
  0.000   0.000   0.000   0.000   0.007  -0.000  -0.000  -0.026
 -0.000  -0.000  -0.000   0.008   0.000   0.000  -0.031  -0.000
 -0.004  -0.004  -0.003  -0.000  -0.000   0.006   0.000   0.000
 -0.000  -0.000   0.000   0.000  -0.000  -0.000  -0.000   0.000
  0.007   0.007  -0.007   0.000   0.000   0.016  -0.000  -0.000
 pseudopotential strength for first ion, spin component:           2
 -9.794  -7.366   0.012  -0.000   0.000  -0.029   0.000  -0.000
 -7.366   1.212   0.014  -0.000   0.000  -0.001   0.000  -0.000
  0.012   0.014 -12.323  -0.000   0.000   4.912   0.000  -0.000
 -0.000  -0.000  -0.000 -12.323  -0.000   0.000   4.911   0.000
  0.000   0.000   0.000  -0.000 -12.303  -0.000   0.000   4.881
 -0.029  -0.001   4.912   0.000  -0.000   7.892  -0.000   0.000
  0.000   0.000   0.000   4.911   0.000  -0.000   7.890  -0.000
 -0.000  -0.000  -0.000   0.000   4.881   0.000  -0.000   7.909
  0.000   0.000   0.000   0.000   0.005  -0.000  -0.000  -0.020
 -0.000  -0.000  -0.000   0.005   0.000   0.000  -0.024  -0.000
 -0.003  -0.003  -0.002  -0.000  -0.000   0.005   0.000   0.000
 -0.000  -0.000   0.000   0.000  -0.000  -0.000  -0.000   0.000
  0.005   0.005  -0.005   0.000   0.000   0.012  -0.000  -0.000
  0.000   0.000   0.000   0.000   0.007  -0.000  -0.000  -0.026
 -0.000  -0.000  -0.000   0.008   0.000   0.000  -0.031  -0.000
 -0.004  -0.004  -0.003  -0.000  -0.000   0.006   0.000   0.000
 -0.000  -0.000   0.000   0.000  -0.000  -0.000  -0.000   0.000
  0.007   0.007  -0.007   0.000   0.000   0.016  -0.000  -0.000
 total augmentation occupancy for first ion, spin component:           1
  1.997  -0.026  -0.003   0.000   0.000  -0.006   0.000   0.000   0.000   0.000  -0.008   0.000   0.004   0.000   0.000   0.009
 -0.026   0.720  -0.083   0.000   0.000   0.068   0.000   0.000   0.000   0.000  -0.098   0.000   0.260   0.000   0.000   0.054
 -0.003  -0.083   2.007   0.000   0.000  -0.018   0.000   0.000   0.000   0.000  -0.015   0.000  -0.011   0.000   0.000   0.009
  0.000   0.000   0.000   2.005   0.000   0.000  -0.017   0.000   0.000  -0.122   0.000   0.000   0.000   0.000   0.033   0.000
  0.000   0.000   0.000   0.000   2.008   0.000   0.000  -0.027  -0.095   0.000   0.000   0.000   0.000   0.021   0.000   0.000
 -0.006   0.068  -0.018   0.000   0.000   0.044   0.000   0.000   0.000   0.000   0.026   0.000   0.056   0.000   0.000  -0.013
  0.000   0.000   0.000  -0.017   0.000   0.000   0.040   0.000   0.000   0.268   0.000   0.000   0.000   0.000  -0.150   0.000
  0.000   0.000   0.000   0.000  -0.027   0.000   0.000   0.059   0.260   0.000   0.000   0.000   0.000  -0.150   0.000   0.000
  0.000   0.000   0.000   0.000  -0.095   0.000   0.000   0.260   4.352   0.000   0.000   0.000   0.000  -2.429   0.000   0.000
  0.000   0.000   0.000  -0.122   0.000   0.000   0.268   0.000   0.000   3.103   0.000   0.000   0.000   0.000  -1.721   0.000
 -0.008  -0.098  -0.015   0.000   0.000   0.026   0.000   0.000   0.000   0.000   3.921   0.000  -1.420   0.000   0.000  -2.213
  0.000   0.000   0.000   0.000   0.000   0.000   0.000   0.000   0.000   0.000   0.000   1.486   0.000   0.000   0.000   0.000
  0.004   0.260  -0.011   0.000   0.000   0.056   0.000   0.000   0.000   0.000  -1.420   0.000   2.587   0.000   0.000   0.838
  0.000   0.000   0.000   0.000   0.021   0.000   0.000  -0.150  -2.429   0.000   0.000   0.000   0.000   1.370   0.000   0.000
  0.000   0.000   0.000   0.033   0.000   0.000  -0.150   0.000   0.000  -1.721   0.000   0.000   0.000   0.000   0.965   0.000
  0.009   0.054   0.009   0.000   0.000  -0.013   0.000   0.000   0.000   0.000  -2.213   0.000   0.838   0.000   0.000   1.260
  0.000   0.000   0.000   0.000   0.000   0.000   0.000   0.000   0.000   0.000   0.000  -0.804   0.000   0.000   0.000   0.000
 -0.009  -0.151   0.009   0.000   0.000  -0.030   0.000   0.000   0.000   0.000   0.839   0.000  -1.437   0.000   0.000  -0.499
 total augmentation occupancy for first ion, spin component:           2
 -0.000  -0.000  -0.000   0.000   0.000   0.000   0.000   0.000   0.000   0.000  -0.000   0.000   0.000   0.000   0.000   0.000
 -0.000  -0.000   0.000   0.000   0.000  -0.000   0.000   0.000   0.000   0.000  -0.000   0.000   0.000   0.000   0.000   0.000
 -0.000   0.000   0.000   0.000   0.000  -0.000   0.000   0.000   0.000   0.000  -0.000   0.000  -0.000   0.000   0.000   0.000
  0.000   0.000   0.000   0.000   0.000   0.000  -0.000   0.000   0.000   0.000   0.000   0.000   0.000   0.000  -0.000   0.000
  0.000   0.000   0.000   0.000  -0.000   0.000   0.000  -0.000  -0.000   0.000   0.000   0.000   0.000   0.000   0.000   0.000
  0.000  -0.000  -0.000   0.000   0.000  -0.000   0.000   0.000   0.000   0.000   0.000   0.000  -0.000   0.000   0.000  -0.000
  0.000   0.000   0.000  -0.000   0.000   0.000  -0.000   0.000   0.000   0.000   0.000   0.000   0.000   0.000  -0.000   0.000
  0.000   0.000   0.000   0.000  -0.000   0.000   0.000  -0.000   0.000   0.000   0.000   0.000   0.000  -0.000   0.000   0.000
  0.000   0.000   0.000   0.000  -0.000   0.000   0.000   0.000   0.000   0.000   0.000   0.000   0.000  -0.000   0.000   0.000
  0.000   0.000   0.000   0.000   0.000   0.000   0.000   0.000   0.000  -0.001   0.000   0.000   0.000   0.000   0.000   0.000
 -0.000  -0.000  -0.000   0.000   0.000   0.000   0.000   0.000   0.000   0.000  -0.000   0.000  -0.000   0.000   0.000  -0.000
  0.000   0.000   0.000   0.000   0.000   0.000   0.000   0.000   0.000   0.000   0.000  -0.000   0.000   0.000   0.000   0.000
  0.000   0.000  -0.000   0.000   0.000  -0.000   0.000   0.000   0.000   0.000  -0.000   0.000  -0.000   0.000   0.000   0.000
  0.000   0.000   0.000   0.000   0.000   0.000   0.000  -0.000  -0.000   0.000   0.000   0.000   0.000   0.000   0.000   0.000
  0.000   0.000   0.000  -0.000   0.000   0.000  -0.000   0.000   0.000   0.000   0.000   0.000   0.000   0.000   0.000   0.000
  0.000   0.000   0.000   0.000   0.000  -0.000   0.000   0.000   0.000   0.000  -0.000   0.000   0.000   0.000   0.000   0.000
  0.000   0.000   0.000   0.000   0.000   0.000   0.000   0.000   0.000   0.000   0.000  -0.000   0.000   0.000   0.000   0.000
 -0.000  -0.000   0.000   0.000   0.000   0.000   0.000   0.000   0.000   0.000   0.000   0.000  -0.000   0.000   0.000  -0.000


------------------------ aborting loop because EDIFF is reached ----------------------------------------


 


 total charge     
 
# of ion     s       p       d       tot
----------------------------------------
  1        2.072   5.825   0.791   8.688
  2        2.067   5.829   0.784   8.680
  3        2.067   5.826   0.762   8.655
  4        2.067   5.826   0.762   8.655
  5        1.476   2.342   0.034   3.851
  6        1.476   2.342   0.034   3.851
  7        1.446   2.421   0.012   3.879
  8        1.565   3.474   0.000   5.038
  9        1.564   3.474   0.000   5.038
 10        1.567   3.491   0.000   5.057
 11        1.563   3.455   0.000   5.018
------------------------------------------------
tot       18.929  44.303   3.179  66.411
 


 magnetization (x)
 
# of ion     s       p       d       tot
----------------------------------------
  1       -0.000   0.000  -0.000  -0.000
  2       -0.000   0.000  -0.000  -0.000
  3       -0.000   0.000  -0.000  -0.000
  4       -0.000   0.000  -0.000  -0.000
  5        0.000   0.000  -0.000   0.000
  6        0.000   0.000  -0.000   0.000
  7        0.000   0.000  -0.000   0.000
  8       -0.000   0.000   0.000   0.000
  9       -0.000   0.000   0.000   0.000
 10       -0.000   0.000   0.000   0.000
 11       -0.000   0.000   0.000   0.000
------------------------------------------------
tot       -0.000   0.002  -0.001   0.001
 
    CHARGE:  cpu time    0.9869: real time    0.9886
    FORLOC:  cpu time    0.0020: real time    0.0149
    FORNL :  cpu time    7.2139: real time    7.2291
    STRESS:  cpu time   14.9977: real time   15.0291
    FORCOR:  cpu time    0.5059: real time    0.5082
    FORHAR:  cpu time    0.1010: real time    0.1040
    MIXING:  cpu time    0.0020: real time    0.0031
    OFIELD:  cpu time    0.0020: real time    0.0045

  FORCE on cell =-STRESS in cart. coord.  units (eV):
  Direction    XX          YY          ZZ          XY          YZ          ZX
  --------------------------------------------------------------------------------------
  Alpha Z   488.06000   488.06000   488.06000
  Ewald   -1125.54914 -2548.84023 -1180.67281    -0.00000    -0.00000    -0.00000
  Hartree   887.33380  -240.81598   851.05186     0.00000     0.00000    -0.00000
  E(xc)    -350.45226  -351.26443  -349.52019    -0.00000    -0.00000     0.00000
  Local   -1120.54333  1436.26076 -1007.38174     0.00000    -0.00000    -0.00000
  n-local  -102.53408   -99.19949  -107.67904     0.31835     0.05713     0.04435
  augment    22.47204    21.38327    24.35327    -0.00000    -0.00000     0.00000
  Kinetic  1306.04185  1298.62238  1285.76634     0.93853     0.07575     0.06316
  Fock        0.00000     0.00000     0.00000     0.00000     0.00000     0.00000
  -------------------------------------------------------------------------------------
  Total       4.82886     4.20626     3.97768     0.00000     0.00000     0.00000
  in kB      34.96919    30.46048    28.80516     0.00000     0.00000     0.00000
  external pressure =       31.41 kB  Pullay stress =        0.00 kB


 VOLUME and BASIS-vectors are now :
 -----------------------------------------------------------------------------
  energy-cutoff  :      520.00
  volume of cell :      221.24
      direct lattice vectors                 reciprocal lattice vectors
     2.013900000 -6.462850000  0.000000000     0.248274492 -0.077365249  0.000000000
     2.013900000  6.462850000  0.000000000     0.248274492  0.077365249  0.000000000
     0.000000000  0.000000000  8.499200000     0.000000000  0.000000000  0.117658133

  length of vectors
     6.769359152  6.769359152  8.499200000     0.260049236  0.260049236  0.117658133


 FORCES acting on ions
    electron-ion (+dipol)            ewald-force                    non-local-force                 convergence-correction
 -----------------------------------------------------------------------------------------------
   0.149E-11 0.329E+03 0.422E-12   -.447E-14 -.325E+03 -.386E-14   0.000E+00 -.448E+01 0.000E+00   0.151E-13 0.260E-02 0.931E-13
   -.120E-11 0.257E+03 0.231E-11   -.127E-13 -.253E+03 -.254E-13   0.000E+00 -.358E+01 0.000E+00   -.703E-14 0.185E-01 0.600E-13
   -.124E-08 -.288E+03 -.172E+02   0.322E-13 0.284E+03 0.173E+02   0.000E+00 0.369E+01 -.251E+00   -.252E-12 -.102E-01 0.121E-01
   0.124E-08 -.288E+03 0.172E+02   -.125E-13 0.284E+03 -.173E+02   0.000E+00 0.369E+01 0.251E+00   0.132E-12 -.102E-01 -.121E-01
   0.355E-07 0.913E+01 0.220E+02   -.738E-14 -.924E+01 -.243E+02   -.173E-17 0.140E+00 0.196E+01   -.293E-11 -.105E-02 0.974E-02
   -.355E-07 0.913E+01 -.220E+02   0.356E-14 -.924E+01 0.243E+02   0.000E+00 0.140E+00 -.196E+01   0.298E-11 -.105E-02 -.974E-02
   0.746E-12 -.526E+02 -.727E-12   -.157E-14 0.526E+02 -.233E-13   0.000E+00 -.343E-01 0.000E+00   0.195E-13 -.742E-02 -.487E-13
   -.110E-07 0.336E+02 -.141E+02   -.201E-13 -.347E+02 0.139E+02   0.000E+00 0.100E+01 0.218E+00   0.808E-11 -.740E-02 0.455E-02
   0.110E-07 0.336E+02 0.141E+02   0.155E-13 -.347E+02 -.139E+02   0.000E+00 0.100E+01 -.218E+00   -.820E-11 -.740E-02 -.455E-02
   0.109E-11 0.189E+02 0.200E-11   0.422E-14 -.187E+02 -.299E-13   0.000E+00 0.141E-01 0.000E+00   0.498E-13 0.466E-02 0.108E-12
   0.256E-12 -.613E+02 0.283E-11   0.601E-14 0.640E+02 -.269E-13   0.000E+00 -.272E+01 0.000E+00   -.374E-13 0.991E-02 0.600E-13
 -----------------------------------------------------------------------------------------------
   0.238E-11 0.113E+01 0.328E-10   0.280E-14 0.568E-13 -.195E-13   -.173E-17 -.112E+01 0.000E+00   -.161E-12 -.906E-02 0.415E-12
 
 
 POSITION                                       TOTAL-FORCE (eV/Angst)
 -----------------------------------------------------------------------------------
      0.00000      0.00000      0.00000         0.000000     -0.281199     -0.000000
      2.01390     -6.22062      4.24960         0.000000     -0.166467     -0.000000
      2.01390      2.38893      2.00913         0.000000      0.151380     -0.082326
      2.01390      2.38893      6.49007         0.000000      0.151380      0.082326
      2.01390     -1.85225      3.01722         0.000000      0.022646     -0.335398
      2.01390     -1.85225      5.48198         0.000000      0.022646      0.335398
      2.01390     -2.44554      0.00000         0.000000      0.044433     -0.000000
      2.01390     -5.30600      2.06871         0.000000     -0.112383      0.045704
      2.01390     -5.30600      6.43049         0.000000     -0.112383     -0.045704
      2.01390      1.10256      0.00000         0.000000      0.277412     -0.000000
      2.01390      1.52265      4.24960         0.000000      0.002536     -0.000000
 -----------------------------------------------------------------------------------
    total drift:                                0.000000      0.000143      0.000000


--------------------------------------------------------------------------------------------------------



  FREE ENERGIE OF THE ION-ELECTRON SYSTEM (eV)
  ---------------------------------------------------
  free  energy   TOTEN  =       -79.25700976 eV

  energy  without entropy=      -79.25700976  energy(sigma->0) =      -79.25700976
 


--------------------------------------------------------------------------------------------------------


    POTLOK:  cpu time    1.0838: real time    1.0897


--------------------------------------------------------------------------------------------------------


     LOOP+:  cpu time  558.6371: real time  560.7579
    4ORBIT:  cpu time    0.0000: real time    0.0000
 


 total charge     
 
# of ion     s       p       d       tot
----------------------------------------
  1        2.072   5.825   0.791   8.688
  2        2.067   5.829   0.784   8.680
  3        2.067   5.826   0.762   8.655
  4        2.067   5.826   0.762   8.655
  5        1.476   2.342   0.034   3.851
  6        1.476   2.342   0.034   3.851
  7        1.446   2.421   0.012   3.879
  8        1.565   3.474   0.000   5.038
  9        1.564   3.474   0.000   5.038
 10        1.567   3.491   0.000   5.057
 11        1.563   3.455   0.000   5.018
------------------------------------------------
tot       18.929  44.303   3.179  66.411
 


 magnetization (x)
 
# of ion     s       p       d       tot
----------------------------------------
  1       -0.000   0.000  -0.000  -0.000
  2       -0.000   0.000  -0.000  -0.000
  3       -0.000   0.000  -0.000  -0.000
  4       -0.000   0.000  -0.000  -0.000
  5        0.000   0.000  -0.000   0.000
  6        0.000   0.000  -0.000   0.000
  7        0.000   0.000  -0.000   0.000
  8       -0.000   0.000   0.000   0.000
  9       -0.000   0.000   0.000   0.000
 10       -0.000   0.000   0.000   0.000
 11       -0.000   0.000   0.000   0.000
------------------------------------------------
tot       -0.000   0.002  -0.001   0.001
 

 total amount of memory used by VASP on root node   107121. kBytes
========================================================================

   base      :      30000. kBytes
   nonl-proj :      43442. kBytes
   fftplans  :       3185. kBytes
   grid      :       3569. kBytes
   one-center:         31. kBytes
   wavefun   :      26894. kBytes
 
  
  
 General timing and accounting informations for this job:
 ========================================================
  
                  Total CPU time used (sec):      650.717
                            User time (sec):      607.156
                          System time (sec):       43.561
                         Elapsed time (sec):      657.775
  
                   Maximum memory used (kb):      284932.
                   Average memory used (kb):           0.
  
                          Minor page faults:       294511
                          Major page faults:          408
                 Voluntary context switches:        10569
