 vasp.5.4.4.18Apr17-6-g9f103f2a35 (build Jan 10 2024 09:48:00) complex          
  
 executed on             LinuxIFC date 2024.04.21  11:23:28
 running on   64 total cores
 distrk:  each k-point on   64 cores,    1 groups
 distr:  one band on NCORES_PER_BAND=   8 cores,    8 groups


--------------------------------------------------------------------------------------------------------


 INCAR:
 POTCAR:    PAW_PBE H 15Jun2001                   
 POTCAR:    PAW_PBE W 08Apr2002                   
 POTCAR:    PAW_PBE H 15Jun2001                   
   VRHFIN =H: ultrasoft test                                                    
   LEXCH  = PE                                                                  
   EATOM  =    12.4884 eV,    0.9179 Ry                                         
                                                                                
   TITEL  = PAW_PBE H 15Jun2001                                                 
   LULTRA =        F    use ultrasoft PP ?                                      
   IUNSCR =        0    unscreen: 0-lin 1-nonlin 2-no                           
   RPACOR =    0.000    partial core radius                                     
   POMASS =    1.000; ZVAL   =    1.000    mass and valenz                      
   RCORE  =    1.100    outmost cutoff radius                                   
   RWIGS  =    0.700; RWIGS  =    0.370    wigner-seitz radius (au A)           
   ENMAX  =  250.000; ENMIN  =  200.000 eV                                      
   RCLOC  =    0.701    cutoff for local pot                                    
   LCOR   =        T    correct aug charges                                     
   LPAW   =        T    paw PP                                                  
   EAUG   =  400.000                                                            
   RMAX   =    1.123    core radius for proj-oper                               
   RAUG   =    1.200    factor for augmentation sphere                          
   RDEP   =    1.112    radius for radial grids                                 
   RDEPT  =    0.926    core radius for aug-charge                              
                                                                                
   Atomic configuration                                                         
    2 entries                                                                   
     n  l   j            E        occ.                                          
     1  0  0.50        -6.4927   1.0000                                         
     2  1  0.50        -3.4015   0.0000                                         
   Description                                                                  
     l       E           TYP  RCUT    TYP  RCUT                                 
     0     -6.4927494     23  1.100                                             
     0      6.8029130     23  1.100                                             
     1     -4.0817478     23  1.100                                             
  local pseudopotential read in
  atomic valenz-charges read in
  non local Contribution for L=           0  read in
    real space projection operators read in
  non local Contribution for L=           0  read in
    real space projection operators read in
  non local Contribution for L=           1  read in
    real space projection operators read in
    PAW grid and wavefunctions read in
 
   number of l-projection  operators is LMAX  =           3
   number of lm-projection operators is LMMAX =           5
 
 POTCAR:    PAW_PBE W 08Apr2002                   
   VRHFIN =W : 6s5d                                                             
   LEXCH  = PE                                                                  
   EATOM  =   204.6103 eV,   15.0384 Ry                                         
                                                                                
   TITEL  = PAW_PBE W 08Apr2002                                                 
   LULTRA =        F    use ultrasoft PP ?                                      
   IUNSCR =        1    unscreen: 0-lin 1-nonlin 2-no                           
   RPACOR =    2.330    partial core radius                                     
   POMASS =  183.850; ZVAL   =    6.000    mass and valenz                      
   RCORE  =    2.750    outmost cutoff radius                                   
   RWIGS  =    2.750; RWIGS  =    1.455    wigner-seitz radius (au A)           
   ENMAX  =  223.057; ENMIN  =  167.293 eV                                      
   RCLOC  =    2.147    cutoff for local pot                                    
   LCOR   =        T    correct aug charges                                     
   LPAW   =        T    paw PP                                                  
   EAUG   =  373.438                                                            
   DEXC   =    0.000                                                            
   RMAX   =    2.801    core radius for proj-oper                               
   RAUG   =    1.300    factor for augmentation sphere                          
   RDEP   =    2.886    radius for radial grids                                 
   RDEPT  =    2.230    core radius for aug-charge                              
                                                                                
   Atomic configuration                                                         
   16 entries                                                                   
     n  l   j            E        occ.                                          
     1  0  0.50    -69465.5836   2.0000                                         
     2  0  0.50    -11986.2642   2.0000                                         
     2  1  1.50    -10479.8616   6.0000                                         
     3  0  0.50     -2759.0758   2.0000                                         
     3  1  1.50     -2313.1857   6.0000                                         
     3  2  2.50     -1801.1185  10.0000                                         
     4  0  0.50      -567.6791   2.0000                                         
     4  1  1.50      -421.4694   6.0000                                         
     4  2  2.50      -236.3473  10.0000                                         
     4  3  3.50       -31.2666  14.0000                                         
     5  0  0.50       -77.1085   2.0000                                         
     5  1  1.50       -41.3856   6.0000                                         
     5  2  2.50        -3.3185   5.0000                                         
     6  0  0.50        -5.1438   1.0000                                         
     6  1  0.50        -3.8096   0.0000                                         
     5  3  2.50        -1.3606   0.0000                                         
   Description                                                                  
     l       E           TYP  RCUT    TYP  RCUT                                 
     2     -3.3185288     23  2.500                                             
     2     -1.5965414     23  2.500                                             
     0     -5.1438054     23  2.500                                             
     0      4.9117504     23  2.500                                             
     1      2.7211652     23  2.750                                             
     1     27.2116520     23  2.750                                             
  local pseudopotential read in
  partial core-charges read in
  partial kinetic energy density read in
  atomic valenz-charges read in
  non local Contribution for L=           2  read in
    real space projection operators read in
  non local Contribution for L=           2  read in
    real space projection operators read in
  non local Contribution for L=           0  read in
    real space projection operators read in
  non local Contribution for L=           0  read in
    real space projection operators read in
  non local Contribution for L=           1  read in
    real space projection operators read in
  non local Contribution for L=           1  read in
    real space projection operators read in
    PAW grid and wavefunctions read in
 
   number of l-projection  operators is LMAX  =           6
   number of lm-projection operators is LMMAX =          18
 
  PAW_PBE H 15Jun2001                   :
 energy of atom  1       EATOM=  -12.4884
 kinetic energy error for atom=    0.0014 (will be added to EATOM!!)
  PAW_PBE W 08Apr2002                   :
 energy of atom  2       EATOM= -204.6103
 kinetic energy error for atom=    0.0014 (will be added to EATOM!!)
 
 
 POSCAR: H6 W2                                   
  positions in direct lattice
  velocities in cartesian coordinates
 exchange correlation table for  LEXCH =        8
   RHO(1)=    0.500       N(1)  =     2000
   RHO(2)=  100.500       N(2)  =     4000
 


--------------------------------------------------------------------------------------------------------


 ion  position               nearest neighbor table
   1  0.447  0.750  0.797-   7 1.93   7 1.93
   2  0.553  0.250  0.203-   8 1.93   8 1.93
   3  0.096  0.750  0.204-   8 1.92   8 1.94
   4  0.904  0.250  0.796-   7 1.92   7 1.94
   5  0.080  0.250  0.372-   7 1.81   8 1.98   8 1.98
   6  0.920  0.750  0.628-   8 1.81   7 1.98   7 1.98
   7  0.327  0.250  0.628-   5 1.81   4 1.92   1 1.93   1 1.93   4 1.94   6 1.98   6 1.98   8 2.75
                             8 2.75   8 2.85   8 2.85
   8  0.673  0.750  0.372-   6 1.81   3 1.92   2 1.93   2 1.93   3 1.94   5 1.98   5 1.98   7 2.75
                             7 2.75   7 2.85   7 2.85
 
  LATTYP: Found a simple monoclinic cell.
 ALAT       =     7.1203685998
 B/A-ratio  =     0.4293958337
 C/A-ratio  =     1.9503863106
 COS(beta)  =    -0.9764551425
  
  Lattice vectors:
  
 A1 = (   0.0000000000,  -1.7361381160,   6.9054669240)
 A2 = (  -3.0574566111,   0.0000000000,   0.0000000000)
 A3 = (   0.0000000000,   0.4010187071, -13.8816782681)


Analysis of symmetry for initial positions (statically):
=====================================================================
 Subroutine PRICEL returns:
 Original cell was already a primitive cell.
 

 Routine SETGRP: Setting up the symmetry group for a 
 simple monoclinic supercell.


 Subroutine GETGRP returns: Found  4 space group operations
 (whereof  2 operations were pure point group operations)
 out of a pool of  4 trial point group operations.


The static configuration has the point symmetry S_2 .
 The point group associated with its full space group is C_2h.


Analysis of symmetry for dynamics (positions and initial velocities):
=====================================================================
 Subroutine PRICEL returns:
 Original cell was already a primitive cell.
 

 Routine SETGRP: Setting up the symmetry group for a 
 simple monoclinic supercell.


 Subroutine GETGRP returns: Found  4 space group operations
 (whereof  2 operations were pure point group operations)
 out of a pool of  4 trial point group operations.


The dynamic configuration has the point symmetry S_2 .
 The point group associated with its full space group is C_2h.


Analysis of structural, dynamic, and magnetic symmetry:
=====================================================================
 Subroutine PRICEL returns:
 Original cell was already a primitive cell.
 

 Routine SETGRP: Setting up the symmetry group for a 
 simple monoclinic supercell.


 Subroutine GETGRP returns: Found  4 space group operations
 (whereof  2 operations were pure point group operations)
 out of a pool of  4 trial point group operations.


The magnetic configuration has the point symmetry S_2 .
 The point group associated with its full space group is C_2h.


 Subroutine INISYM returns: Found  4 space group operations
 (whereof  2 operations are pure point group operations),
 and found     1 'primitive' translations

 
 
 KPOINTS: 0.040   8   8   4   90  0.040  226   10 
  k-points in reciprocal lattice
Space group operators:
 irot       det(A)        alpha          n_x          n_y          n_z        tau_x        tau_y        tau_z
    1     1.000000     0.000000     1.000000     0.000000     0.000000     0.000000     0.000000     0.000000
    2    -1.000000     0.000000     1.000000     0.000000     0.000000     0.000000     0.000000     0.000000
    3     1.000000   180.000000     1.000000     0.000000     0.000000     0.000000    -0.500000     0.000000
    4    -1.000000   180.000000     1.000000     0.000000     0.000000     0.000000    -0.500000     0.000000

 ----------------------------------------------------------------------------- 
|                                                                             |
|           W    W    AA    RRRRR   N    N  II  N    N   GGGG   !!!           |
|           W    W   A  A   R    R  NN   N  II  NN   N  G    G  !!!           |
|           W    W  A    A  R    R  N N  N  II  N N  N  G       !!!           |
|           W WW W  AAAAAA  RRRRR   N  N N  II  N  N N  G  GGG   !            |
|           WW  WW  A    A  R   R   N   NN  II  N   NN  G    G                |
|           W    W  A    A  R    R  N    N  II  N    N   GGGG   !!!           |
|                                                                             |
|      Your generating k-point grid is not commensurate to the symmetry       |
|      of the lattice.  This can cause   slow convergence with respect        |
|      to k-points for HF type calculations                                   |
|      suggested SOLUTIONS:                                                   |
|       ) if not already the case, use automatic k-point generation           |
|       ) shift your grid to Gamma (G) (e.g. required for hex or fcc lattice) |
|                                                                             |
 ----------------------------------------------------------------------------- 

 
 Subroutine IBZKPT_HF returns following result:
 ==============================================
 
 Found    482 k-points in 1st BZ
 the following    482 k-points will be used (e.g. in the exchange kernel)
 Following reciprocal coordinates:   # in IRBZ
  0.000000  0.000000  0.000000    0.00390625   1 t-inv F
  0.125000  0.000000  0.000000    0.00390625   2 t-inv F
  0.250000  0.000000  0.000000    0.00390625   3 t-inv F
  0.375000  0.000000  0.000000    0.00390625   4 t-inv F
  0.500000  0.000000  0.000000    0.00390625   5 t-inv F
  0.000000  0.125000  0.000000    0.00390625   6 t-inv F
  0.125000  0.125000  0.000000    0.00390625   7 t-inv F
  0.250000  0.125000  0.000000    0.00390625   8 t-inv F
  0.375000  0.125000  0.000000    0.00390625   9 t-inv F
  0.500000  0.125000  0.000000    0.00390625  10 t-inv F
  0.000000  0.250000  0.000000    0.00390625  11 t-inv F
  0.125000  0.250000  0.000000    0.00390625  12 t-inv F
  0.250000  0.250000  0.000000    0.00390625  13 t-inv F
  0.375000  0.250000  0.000000    0.00390625  14 t-inv F
  0.500000  0.250000  0.000000    0.00390625  15 t-inv F
  0.000000  0.375000  0.000000    0.00390625  16 t-inv F
  0.125000  0.375000  0.000000    0.00390625  17 t-inv F
  0.250000  0.375000  0.000000    0.00390625  18 t-inv F
  0.375000  0.375000  0.000000    0.00390625  19 t-inv F
  0.500000  0.375000  0.000000    0.00390625  20 t-inv F
  0.000000  0.500000  0.000000    0.00390625  21 t-inv F
  0.125000  0.500000  0.000000    0.00390625  22 t-inv F
  0.250000  0.500000  0.000000    0.00390625  23 t-inv F
  0.375000  0.500000  0.000000    0.00390625  24 t-inv F
  0.500000  0.500000  0.000000    0.00390625  25 t-inv F
  0.000000  0.000000  0.250000    0.00390625  26 t-inv F
  0.125000  0.000000  0.250000    0.00390625  27 t-inv F
  0.250000  0.000000  0.250000    0.00390625  28 t-inv F
  0.375000  0.000000  0.250000    0.00390625  29 t-inv F
  0.500000  0.000000  0.250000    0.00390625  30 t-inv F
 -0.375000  0.000000  0.250000    0.00390625  31 t-inv F
 -0.250000  0.000000  0.250000    0.00390625  32 t-inv F
 -0.125000  0.000000  0.250000    0.00390625  33 t-inv F
  0.000000  0.125000  0.250000    0.00390625  34 t-inv F
  0.125000  0.125000  0.250000    0.00390625  35 t-inv F
  0.250000  0.125000  0.250000    0.00390625  36 t-inv F
  0.375000  0.125000  0.250000    0.00390625  37 t-inv F
  0.500000  0.125000  0.250000    0.00390625  38 t-inv F
 -0.375000  0.125000  0.250000    0.00390625  39 t-inv F
 -0.250000  0.125000  0.250000    0.00390625  40 t-inv F
 -0.125000  0.125000  0.250000    0.00390625  41 t-inv F
  0.000000  0.250000  0.250000    0.00390625  42 t-inv F
  0.125000  0.250000  0.250000    0.00390625  43 t-inv F
  0.250000  0.250000  0.250000    0.00390625  44 t-inv F
  0.375000  0.250000  0.250000    0.00390625  45 t-inv F
  0.500000  0.250000  0.250000    0.00390625  46 t-inv F
 -0.375000  0.250000  0.250000    0.00390625  47 t-inv F
 -0.250000  0.250000  0.250000    0.00390625  48 t-inv F
 -0.125000  0.250000  0.250000    0.00390625  49 t-inv F
  0.000000  0.375000  0.250000    0.00390625  50 t-inv F
  0.125000  0.375000  0.250000    0.00390625  51 t-inv F
  0.250000  0.375000  0.250000    0.00390625  52 t-inv F
  0.375000  0.375000  0.250000    0.00390625  53 t-inv F
  0.500000  0.375000  0.250000    0.00390625  54 t-inv F
 -0.375000  0.375000  0.250000    0.00390625  55 t-inv F
 -0.250000  0.375000  0.250000    0.00390625  56 t-inv F
 -0.125000  0.375000  0.250000    0.00390625  57 t-inv F
  0.000000  0.500000  0.250000    0.00390625  58 t-inv F
  0.125000  0.500000  0.250000    0.00390625  59 t-inv F
  0.250000  0.500000  0.250000    0.00390625  60 t-inv F
  0.375000  0.500000  0.250000    0.00390625  61 t-inv F
  0.500000  0.500000  0.250000    0.00390625  62 t-inv F
 -0.375000  0.500000  0.250000    0.00390625  63 t-inv F
 -0.250000  0.500000  0.250000    0.00390625  64 t-inv F
 -0.125000  0.500000  0.250000    0.00390625  65 t-inv F
  0.000000  0.000000  0.500000    0.00390625  66 t-inv F
  0.125000  0.000000  0.500000    0.00390625  67 t-inv F
  0.250000  0.000000  0.500000    0.00390625  68 t-inv F
  0.375000  0.000000  0.500000    0.00390625  69 t-inv F
  0.500000  0.000000  0.500000    0.00390625  70 t-inv F
  0.000000  0.125000  0.500000    0.00390625  71 t-inv F
  0.125000  0.125000  0.500000    0.00390625  72 t-inv F
  0.250000  0.125000  0.500000    0.00390625  73 t-inv F
  0.375000  0.125000  0.500000    0.00390625  74 t-inv F
  0.500000  0.125000  0.500000    0.00390625  75 t-inv F
  0.000000  0.250000  0.500000    0.00390625  76 t-inv F
  0.125000  0.250000  0.500000    0.00390625  77 t-inv F
  0.250000  0.250000  0.500000    0.00390625  78 t-inv F
  0.375000  0.250000  0.500000    0.00390625  79 t-inv F
  0.500000  0.250000  0.500000    0.00390625  80 t-inv F
  0.000000  0.375000  0.500000    0.00390625  81 t-inv F
  0.125000  0.375000  0.500000    0.00390625  82 t-inv F
  0.250000  0.375000  0.500000    0.00390625  83 t-inv F
  0.375000  0.375000  0.500000    0.00390625  84 t-inv F
  0.500000  0.375000  0.500000    0.00390625  85 t-inv F
  0.000000  0.500000  0.500000    0.00390625  86 t-inv F
  0.125000  0.500000  0.500000    0.00390625  87 t-inv F
  0.250000  0.500000  0.500000    0.00390625  88 t-inv F
  0.375000  0.500000  0.500000    0.00390625  89 t-inv F
  0.500000  0.500000  0.500000    0.00390625  90 t-inv F
  0.000000  0.000000  0.000000    0.00000000  91 t-inv F
  0.000000  0.020833  0.000000    0.00000000  92 t-inv F
  0.000000  0.041667  0.000000    0.00000000  93 t-inv F
  0.000000  0.062500  0.000000    0.00000000  94 t-inv F
  0.000000  0.083333  0.000000    0.00000000  95 t-inv F
  0.000000  0.104167  0.000000    0.00000000  96 t-inv F
  0.000000  0.125000  0.000000    0.00000000  97 t-inv F
  0.000000  0.145833  0.000000    0.00000000  98 t-inv F
  0.000000  0.166667  0.000000    0.00000000  99 t-inv F
  0.000000  0.187500  0.000000    0.00000000 100 t-inv F
  0.000000  0.208333  0.000000    0.00000000 101 t-inv F
  0.000000  0.229167  0.000000    0.00000000 102 t-inv F
  0.000000  0.250000  0.000000    0.00000000 103 t-inv F
  0.000000  0.270833  0.000000    0.00000000 104 t-inv F
  0.000000  0.291667  0.000000    0.00000000 105 t-inv F
  0.000000  0.312500  0.000000    0.00000000 106 t-inv F
  0.000000  0.333333  0.000000    0.00000000 107 t-inv F
  0.000000  0.354167  0.000000    0.00000000 108 t-inv F
  0.000000  0.375000  0.000000    0.00000000 109 t-inv F
  0.000000  0.395833  0.000000    0.00000000 110 t-inv F
  0.000000  0.416667  0.000000    0.00000000 111 t-inv F
  0.000000  0.437500  0.000000    0.00000000 112 t-inv F
  0.000000  0.458333  0.000000    0.00000000 113 t-inv F
  0.000000  0.479167  0.000000    0.00000000 114 t-inv F
  0.000000  0.500000  0.000000    0.00000000 115 t-inv F
  0.000000  0.500000  0.000000    0.00000000 116 t-inv F
  0.000000  0.500000  0.050000    0.00000000 117 t-inv F
  0.000000  0.500000  0.100000    0.00000000 118 t-inv F
  0.000000  0.500000  0.150000    0.00000000 119 t-inv F
  0.000000  0.500000  0.200000    0.00000000 120 t-inv F
  0.000000  0.500000  0.250000    0.00000000 121 t-inv F
  0.000000  0.500000  0.300000    0.00000000 122 t-inv F
  0.000000  0.500000  0.350000    0.00000000 123 t-inv F
  0.000000  0.500000  0.400000    0.00000000 124 t-inv F
  0.000000  0.500000  0.450000    0.00000000 125 t-inv F
  0.000000  0.500000  0.500000    0.00000000 126 t-inv F
  0.000000  0.500000  0.500000    0.00000000 127 t-inv F
  0.000000  0.479167  0.500000    0.00000000 128 t-inv F
  0.000000  0.458333  0.500000    0.00000000 129 t-inv F
  0.000000  0.437500  0.500000    0.00000000 130 t-inv F
  0.000000  0.416667  0.500000    0.00000000 131 t-inv F
  0.000000  0.395833  0.500000    0.00000000 132 t-inv F
  0.000000  0.375000  0.500000    0.00000000 133 t-inv F
  0.000000  0.354167  0.500000    0.00000000 134 t-inv F
  0.000000  0.333333  0.500000    0.00000000 135 t-inv F
  0.000000  0.312500  0.500000    0.00000000 136 t-inv F
  0.000000  0.291667  0.500000    0.00000000 137 t-inv F
  0.000000  0.270833  0.500000    0.00000000 138 t-inv F
  0.000000  0.250000  0.500000    0.00000000 139 t-inv F
  0.000000  0.229167  0.500000    0.00000000 140 t-inv F
  0.000000  0.208333  0.500000    0.00000000 141 t-inv F
  0.000000  0.187500  0.500000    0.00000000 142 t-inv F
  0.000000  0.166667  0.500000    0.00000000 143 t-inv F
  0.000000  0.145833  0.500000    0.00000000 144 t-inv F
  0.000000  0.125000  0.500000    0.00000000 145 t-inv F
  0.000000  0.104167  0.500000    0.00000000 146 t-inv F
  0.000000  0.083333  0.500000    0.00000000 147 t-inv F
  0.000000  0.062500  0.500000    0.00000000 148 t-inv F
  0.000000  0.041667  0.500000    0.00000000 149 t-inv F
  0.000000  0.020833  0.500000    0.00000000 150 t-inv F
  0.000000  0.000000  0.500000    0.00000000 151 t-inv F
  0.000000  0.000000  0.500000    0.00000000 152 t-inv F
  0.000000  0.000000  0.450000    0.00000000 153 t-inv F
  0.000000  0.000000  0.400000    0.00000000 154 t-inv F
  0.000000  0.000000  0.350000    0.00000000 155 t-inv F
  0.000000  0.000000  0.300000    0.00000000 156 t-inv F
  0.000000  0.000000  0.250000    0.00000000 157 t-inv F
  0.000000  0.000000  0.200000    0.00000000 158 t-inv F
  0.000000  0.000000  0.150000    0.00000000 159 t-inv F
  0.000000  0.000000  0.100000    0.00000000 160 t-inv F
  0.000000  0.000000  0.050000    0.00000000 161 t-inv F
  0.000000  0.000000  0.000000    0.00000000 162 t-inv F
  0.000000  0.000000  0.000000    0.00000000 163 t-inv F
 -0.020000  0.000000  0.020000    0.00000000 164 t-inv F
 -0.040000  0.000000  0.040000    0.00000000 165 t-inv F
 -0.060000  0.000000  0.060000    0.00000000 166 t-inv F
 -0.080000  0.000000  0.080000    0.00000000 167 t-inv F
 -0.100000  0.000000  0.100000    0.00000000 168 t-inv F
 -0.120000  0.000000  0.120000    0.00000000 169 t-inv F
 -0.140000  0.000000  0.140000    0.00000000 170 t-inv F
 -0.160000  0.000000  0.160000    0.00000000 171 t-inv F
 -0.180000  0.000000  0.180000    0.00000000 172 t-inv F
 -0.200000  0.000000  0.200000    0.00000000 173 t-inv F
 -0.220000  0.000000  0.220000    0.00000000 174 t-inv F
 -0.240000  0.000000  0.240000    0.00000000 175 t-inv F
 -0.260000  0.000000  0.260000    0.00000000 176 t-inv F
 -0.280000  0.000000  0.280000    0.00000000 177 t-inv F
 -0.300000  0.000000  0.300000    0.00000000 178 t-inv F
 -0.320000  0.000000  0.320000    0.00000000 179 t-inv F
 -0.340000  0.000000  0.340000    0.00000000 180 t-inv F
 -0.360000  0.000000  0.360000    0.00000000 181 t-inv F
 -0.380000  0.000000  0.380000    0.00000000 182 t-inv F
 -0.400000  0.000000  0.400000    0.00000000 183 t-inv F
 -0.420000  0.000000  0.420000    0.00000000 184 t-inv F
 -0.440000  0.000000  0.440000    0.00000000 185 t-inv F
 -0.460000  0.000000  0.460000    0.00000000 186 t-inv F
 -0.480000  0.000000  0.480000    0.00000000 187 t-inv F
 -0.500000  0.000000  0.500000    0.00000000 188 t-inv F
 -0.500000  0.000000  0.500000    0.00000000 189 t-inv F
 -0.500000  0.020833  0.500000    0.00000000 190 t-inv F
 -0.500000  0.041667  0.500000    0.00000000 191 t-inv F
 -0.500000  0.062500  0.500000    0.00000000 192 t-inv F
 -0.500000  0.083333  0.500000    0.00000000 193 t-inv F
 -0.500000  0.104167  0.500000    0.00000000 194 t-inv F
 -0.500000  0.125000  0.500000    0.00000000 195 t-inv F
 -0.500000  0.145833  0.500000    0.00000000 196 t-inv F
 -0.500000  0.166667  0.500000    0.00000000 197 t-inv F
 -0.500000  0.187500  0.500000    0.00000000 198 t-inv F
 -0.500000  0.208333  0.500000    0.00000000 199 t-inv F
 -0.500000  0.229167  0.500000    0.00000000 200 t-inv F
 -0.500000  0.250000  0.500000    0.00000000 201 t-inv F
 -0.500000  0.270833  0.500000    0.00000000 202 t-inv F
 -0.500000  0.291667  0.500000    0.00000000 203 t-inv F
 -0.500000  0.312500  0.500000    0.00000000 204 t-inv F
 -0.500000  0.333333  0.500000    0.00000000 205 t-inv F
 -0.500000  0.354167  0.500000    0.00000000 206 t-inv F
 -0.500000  0.375000  0.500000    0.00000000 207 t-inv F
 -0.500000  0.395833  0.500000    0.00000000 208 t-inv F
 -0.500000  0.416667  0.500000    0.00000000 209 t-inv F
 -0.500000  0.437500  0.500000    0.00000000 210 t-inv F
 -0.500000  0.458333  0.500000    0.00000000 211 t-inv F
 -0.500000  0.479167  0.500000    0.00000000 212 t-inv F
 -0.500000  0.500000  0.500000    0.00000000 213 t-inv F
 -0.500000  0.500000  0.500000    0.00000000 214 t-inv F
 -0.480000  0.500000  0.480000    0.00000000 215 t-inv F
 -0.460000  0.500000  0.460000    0.00000000 216 t-inv F
 -0.440000  0.500000  0.440000    0.00000000 217 t-inv F
 -0.420000  0.500000  0.420000    0.00000000 218 t-inv F
 -0.400000  0.500000  0.400000    0.00000000 219 t-inv F
 -0.380000  0.500000  0.380000    0.00000000 220 t-inv F
 -0.360000  0.500000  0.360000    0.00000000 221 t-inv F
 -0.340000  0.500000  0.340000    0.00000000 222 t-inv F
 -0.320000  0.500000  0.320000    0.00000000 223 t-inv F
 -0.300000  0.500000  0.300000    0.00000000 224 t-inv F
 -0.280000  0.500000  0.280000    0.00000000 225 t-inv F
 -0.260000  0.500000  0.260000    0.00000000 226 t-inv F
 -0.240000  0.500000  0.240000    0.00000000 227 t-inv F
 -0.220000  0.500000  0.220000    0.00000000 228 t-inv F
 -0.200000  0.500000  0.200000    0.00000000 229 t-inv F
 -0.180000  0.500000  0.180000    0.00000000 230 t-inv F
 -0.160000  0.500000  0.160000    0.00000000 231 t-inv F
 -0.140000  0.500000  0.140000    0.00000000 232 t-inv F
 -0.120000  0.500000  0.120000    0.00000000 233 t-inv F
 -0.100000  0.500000  0.100000    0.00000000 234 t-inv F
 -0.080000  0.500000  0.080000    0.00000000 235 t-inv F
 -0.060000  0.500000  0.060000    0.00000000 236 t-inv F
 -0.040000  0.500000  0.040000    0.00000000 237 t-inv F
 -0.020000  0.500000  0.020000    0.00000000 238 t-inv F
  0.000000  0.500000  0.000000    0.00000000 239 t-inv F
  0.000000  0.500000  0.000000    0.00000000 240 t-inv F
 -0.020000  0.500000  0.000000    0.00000000 241 t-inv F
 -0.040000  0.500000  0.000000    0.00000000 242 t-inv F
 -0.060000  0.500000  0.000000    0.00000000 243 t-inv F
 -0.080000  0.500000  0.000000    0.00000000 244 t-inv F
 -0.100000  0.500000  0.000000    0.00000000 245 t-inv F
 -0.120000  0.500000  0.000000    0.00000000 246 t-inv F
 -0.140000  0.500000  0.000000    0.00000000 247 t-inv F
 -0.160000  0.500000  0.000000    0.00000000 248 t-inv F
 -0.180000  0.500000  0.000000    0.00000000 249 t-inv F
 -0.200000  0.500000  0.000000    0.00000000 250 t-inv F
 -0.220000  0.500000  0.000000    0.00000000 251 t-inv F
 -0.240000  0.500000  0.000000    0.00000000 252 t-inv F
 -0.260000  0.500000  0.000000    0.00000000 253 t-inv F
 -0.280000  0.500000  0.000000    0.00000000 254 t-inv F
 -0.300000  0.500000  0.000000    0.00000000 255 t-inv F
 -0.320000  0.500000  0.000000    0.00000000 256 t-inv F
 -0.340000  0.500000  0.000000    0.00000000 257 t-inv F
 -0.360000  0.500000  0.000000    0.00000000 258 t-inv F
 -0.380000  0.500000  0.000000    0.00000000 259 t-inv F
 -0.400000  0.500000  0.000000    0.00000000 260 t-inv F
 -0.420000  0.500000  0.000000    0.00000000 261 t-inv F
 -0.440000  0.500000  0.000000    0.00000000 262 t-inv F
 -0.460000  0.500000  0.000000    0.00000000 263 t-inv F
 -0.480000  0.500000  0.000000    0.00000000 264 t-inv F
 -0.500000  0.500000  0.000000    0.00000000 265 t-inv F
 -0.500000  0.500000  0.000000    0.00000000 266 t-inv F
 -0.500000  0.479167  0.000000    0.00000000 267 t-inv F
 -0.500000  0.458333  0.000000    0.00000000 268 t-inv F
 -0.500000  0.437500  0.000000    0.00000000 269 t-inv F
 -0.500000  0.416667  0.000000    0.00000000 270 t-inv F
 -0.500000  0.395833  0.000000    0.00000000 271 t-inv F
 -0.500000  0.375000  0.000000    0.00000000 272 t-inv F
 -0.500000  0.354167  0.000000    0.00000000 273 t-inv F
 -0.500000  0.333333  0.000000    0.00000000 274 t-inv F
 -0.500000  0.312500  0.000000    0.00000000 275 t-inv F
 -0.500000  0.291667  0.000000    0.00000000 276 t-inv F
 -0.500000  0.270833  0.000000    0.00000000 277 t-inv F
 -0.500000  0.250000  0.000000    0.00000000 278 t-inv F
 -0.500000  0.229167  0.000000    0.00000000 279 t-inv F
 -0.500000  0.208333  0.000000    0.00000000 280 t-inv F
 -0.500000  0.187500  0.000000    0.00000000 281 t-inv F
 -0.500000  0.166667  0.000000    0.00000000 282 t-inv F
 -0.500000  0.145833  0.000000    0.00000000 283 t-inv F
 -0.500000  0.125000  0.000000    0.00000000 284 t-inv F
 -0.500000  0.104167  0.000000    0.00000000 285 t-inv F
 -0.500000  0.083333  0.000000    0.00000000 286 t-inv F
 -0.500000  0.062500  0.000000    0.00000000 287 t-inv F
 -0.500000  0.041667  0.000000    0.00000000 288 t-inv F
 -0.500000  0.020833  0.000000    0.00000000 289 t-inv F
 -0.500000  0.000000  0.000000    0.00000000 290 t-inv F
 -0.500000  0.000000  0.000000    0.00000000 291 t-inv F
 -0.480000  0.000000  0.000000    0.00000000 292 t-inv F
 -0.460000  0.000000  0.000000    0.00000000 293 t-inv F
 -0.440000  0.000000  0.000000    0.00000000 294 t-inv F
 -0.420000  0.000000  0.000000    0.00000000 295 t-inv F
 -0.400000  0.000000  0.000000    0.00000000 296 t-inv F
 -0.380000  0.000000  0.000000    0.00000000 297 t-inv F
 -0.360000  0.000000  0.000000    0.00000000 298 t-inv F
 -0.340000  0.000000  0.000000    0.00000000 299 t-inv F
 -0.320000  0.000000  0.000000    0.00000000 300 t-inv F
 -0.300000  0.000000  0.000000    0.00000000 301 t-inv F
 -0.280000  0.000000  0.000000    0.00000000 302 t-inv F
 -0.260000  0.000000  0.000000    0.00000000 303 t-inv F
 -0.240000  0.000000  0.000000    0.00000000 304 t-inv F
 -0.220000  0.000000  0.000000    0.00000000 305 t-inv F
 -0.200000  0.000000  0.000000    0.00000000 306 t-inv F
 -0.180000  0.000000  0.000000    0.00000000 307 t-inv F
 -0.160000  0.000000  0.000000    0.00000000 308 t-inv F
 -0.140000  0.000000  0.000000    0.00000000 309 t-inv F
 -0.120000  0.000000  0.000000    0.00000000 310 t-inv F
 -0.100000  0.000000  0.000000    0.00000000 311 t-inv F
 -0.080000  0.000000  0.000000    0.00000000 312 t-inv F
 -0.060000  0.000000  0.000000    0.00000000 313 t-inv F
 -0.040000  0.000000  0.000000    0.00000000 314 t-inv F
 -0.020000  0.000000  0.000000    0.00000000 315 t-inv F
  0.000000  0.000000  0.000000    0.00000000 316 t-inv F
 -0.125000  0.000000  0.000000    0.00390625   2 t-inv F
 -0.250000  0.000000  0.000000    0.00390625   3 t-inv F
 -0.375000  0.000000  0.000000    0.00390625   4 t-inv F
  0.000000 -0.125000  0.000000    0.00390625   6 t-inv F
 -0.125000 -0.125000  0.000000    0.00390625   7 t-inv F
 -0.125000  0.125000  0.000000    0.00390625   7 t-inv F
  0.125000 -0.125000  0.000000    0.00390625   7 t-inv F
 -0.250000 -0.125000  0.000000    0.00390625   8 t-inv F
 -0.250000  0.125000  0.000000    0.00390625   8 t-inv F
  0.250000 -0.125000  0.000000    0.00390625   8 t-inv F
 -0.375000 -0.125000  0.000000    0.00390625   9 t-inv F
 -0.375000  0.125000  0.000000    0.00390625   9 t-inv F
  0.375000 -0.125000  0.000000    0.00390625   9 t-inv F
 -0.500000 -0.125000  0.000000    0.00390625  10 t-inv F
  0.000000 -0.250000  0.000000    0.00390625  11 t-inv F
 -0.125000 -0.250000  0.000000    0.00390625  12 t-inv F
 -0.125000  0.250000  0.000000    0.00390625  12 t-inv F
  0.125000 -0.250000  0.000000    0.00390625  12 t-inv F
 -0.250000 -0.250000  0.000000    0.00390625  13 t-inv F
 -0.250000  0.250000  0.000000    0.00390625  13 t-inv F
  0.250000 -0.250000  0.000000    0.00390625  13 t-inv F
 -0.375000 -0.250000  0.000000    0.00390625  14 t-inv F
 -0.375000  0.250000  0.000000    0.00390625  14 t-inv F
  0.375000 -0.250000  0.000000    0.00390625  14 t-inv F
 -0.500000 -0.250000  0.000000    0.00390625  15 t-inv F
  0.000000 -0.375000  0.000000    0.00390625  16 t-inv F
 -0.125000 -0.375000  0.000000    0.00390625  17 t-inv F
 -0.125000  0.375000  0.000000    0.00390625  17 t-inv F
  0.125000 -0.375000  0.000000    0.00390625  17 t-inv F
 -0.250000 -0.375000  0.000000    0.00390625  18 t-inv F
 -0.250000  0.375000  0.000000    0.00390625  18 t-inv F
  0.250000 -0.375000  0.000000    0.00390625  18 t-inv F
 -0.375000 -0.375000  0.000000    0.00390625  19 t-inv F
 -0.375000  0.375000  0.000000    0.00390625  19 t-inv F
  0.375000 -0.375000  0.000000    0.00390625  19 t-inv F
 -0.500000 -0.375000  0.000000    0.00390625  20 t-inv F
 -0.125000 -0.500000  0.000000    0.00390625  22 t-inv F
 -0.250000 -0.500000  0.000000    0.00390625  23 t-inv F
 -0.375000 -0.500000  0.000000    0.00390625  24 t-inv F
  0.000000  0.000000 -0.250000    0.00390625  26 t-inv F
 -0.125000  0.000000 -0.250000    0.00390625  27 t-inv F
 -0.250000  0.000000 -0.250000    0.00390625  28 t-inv F
 -0.375000  0.000000 -0.250000    0.00390625  29 t-inv F
 -0.500000  0.000000 -0.250000    0.00390625  30 t-inv F
  0.375000  0.000000 -0.250000    0.00390625  31 t-inv F
  0.250000  0.000000 -0.250000    0.00390625  32 t-inv F
  0.125000  0.000000 -0.250000    0.00390625  33 t-inv F
  0.000000 -0.125000 -0.250000    0.00390625  34 t-inv F
  0.000000  0.125000 -0.250000    0.00390625  34 t-inv F
  0.000000 -0.125000  0.250000    0.00390625  34 t-inv F
 -0.125000 -0.125000 -0.250000    0.00390625  35 t-inv F
 -0.125000  0.125000 -0.250000    0.00390625  35 t-inv F
  0.125000 -0.125000  0.250000    0.00390625  35 t-inv F
 -0.250000 -0.125000 -0.250000    0.00390625  36 t-inv F
 -0.250000  0.125000 -0.250000    0.00390625  36 t-inv F
  0.250000 -0.125000  0.250000    0.00390625  36 t-inv F
 -0.375000 -0.125000 -0.250000    0.00390625  37 t-inv F
 -0.375000  0.125000 -0.250000    0.00390625  37 t-inv F
  0.375000 -0.125000  0.250000    0.00390625  37 t-inv F
 -0.500000 -0.125000 -0.250000    0.00390625  38 t-inv F
 -0.500000  0.125000 -0.250000    0.00390625  38 t-inv F
  0.500000 -0.125000  0.250000    0.00390625  38 t-inv F
  0.375000 -0.125000 -0.250000    0.00390625  39 t-inv F
  0.375000  0.125000 -0.250000    0.00390625  39 t-inv F
 -0.375000 -0.125000  0.250000    0.00390625  39 t-inv F
  0.250000 -0.125000 -0.250000    0.00390625  40 t-inv F
  0.250000  0.125000 -0.250000    0.00390625  40 t-inv F
 -0.250000 -0.125000  0.250000    0.00390625  40 t-inv F
  0.125000 -0.125000 -0.250000    0.00390625  41 t-inv F
  0.125000  0.125000 -0.250000    0.00390625  41 t-inv F
 -0.125000 -0.125000  0.250000    0.00390625  41 t-inv F
  0.000000 -0.250000 -0.250000    0.00390625  42 t-inv F
  0.000000  0.250000 -0.250000    0.00390625  42 t-inv F
  0.000000 -0.250000  0.250000    0.00390625  42 t-inv F
 -0.125000 -0.250000 -0.250000    0.00390625  43 t-inv F
 -0.125000  0.250000 -0.250000    0.00390625  43 t-inv F
  0.125000 -0.250000  0.250000    0.00390625  43 t-inv F
 -0.250000 -0.250000 -0.250000    0.00390625  44 t-inv F
 -0.250000  0.250000 -0.250000    0.00390625  44 t-inv F
  0.250000 -0.250000  0.250000    0.00390625  44 t-inv F
 -0.375000 -0.250000 -0.250000    0.00390625  45 t-inv F
 -0.375000  0.250000 -0.250000    0.00390625  45 t-inv F
  0.375000 -0.250000  0.250000    0.00390625  45 t-inv F
 -0.500000 -0.250000 -0.250000    0.00390625  46 t-inv F
 -0.500000  0.250000 -0.250000    0.00390625  46 t-inv F
  0.500000 -0.250000  0.250000    0.00390625  46 t-inv F
  0.375000 -0.250000 -0.250000    0.00390625  47 t-inv F
  0.375000  0.250000 -0.250000    0.00390625  47 t-inv F
 -0.375000 -0.250000  0.250000    0.00390625  47 t-inv F
  0.250000 -0.250000 -0.250000    0.00390625  48 t-inv F
  0.250000  0.250000 -0.250000    0.00390625  48 t-inv F
 -0.250000 -0.250000  0.250000    0.00390625  48 t-inv F
  0.125000 -0.250000 -0.250000    0.00390625  49 t-inv F
  0.125000  0.250000 -0.250000    0.00390625  49 t-inv F
 -0.125000 -0.250000  0.250000    0.00390625  49 t-inv F
  0.000000 -0.375000 -0.250000    0.00390625  50 t-inv F
  0.000000  0.375000 -0.250000    0.00390625  50 t-inv F
  0.000000 -0.375000  0.250000    0.00390625  50 t-inv F
 -0.125000 -0.375000 -0.250000    0.00390625  51 t-inv F
 -0.125000  0.375000 -0.250000    0.00390625  51 t-inv F
  0.125000 -0.375000  0.250000    0.00390625  51 t-inv F
 -0.250000 -0.375000 -0.250000    0.00390625  52 t-inv F
 -0.250000  0.375000 -0.250000    0.00390625  52 t-inv F
  0.250000 -0.375000  0.250000    0.00390625  52 t-inv F
 -0.375000 -0.375000 -0.250000    0.00390625  53 t-inv F
 -0.375000  0.375000 -0.250000    0.00390625  53 t-inv F
  0.375000 -0.375000  0.250000    0.00390625  53 t-inv F
 -0.500000 -0.375000 -0.250000    0.00390625  54 t-inv F
 -0.500000  0.375000 -0.250000    0.00390625  54 t-inv F
  0.500000 -0.375000  0.250000    0.00390625  54 t-inv F
  0.375000 -0.375000 -0.250000    0.00390625  55 t-inv F
  0.375000  0.375000 -0.250000    0.00390625  55 t-inv F
 -0.375000 -0.375000  0.250000    0.00390625  55 t-inv F
  0.250000 -0.375000 -0.250000    0.00390625  56 t-inv F
  0.250000  0.375000 -0.250000    0.00390625  56 t-inv F
 -0.250000 -0.375000  0.250000    0.00390625  56 t-inv F
  0.125000 -0.375000 -0.250000    0.00390625  57 t-inv F
  0.125000  0.375000 -0.250000    0.00390625  57 t-inv F
 -0.125000 -0.375000  0.250000    0.00390625  57 t-inv F
  0.000000 -0.500000 -0.250000    0.00390625  58 t-inv F
 -0.125000 -0.500000 -0.250000    0.00390625  59 t-inv F
 -0.250000 -0.500000 -0.250000    0.00390625  60 t-inv F
 -0.375000 -0.500000 -0.250000    0.00390625  61 t-inv F
 -0.500000 -0.500000 -0.250000    0.00390625  62 t-inv F
  0.375000 -0.500000 -0.250000    0.00390625  63 t-inv F
  0.250000 -0.500000 -0.250000    0.00390625  64 t-inv F
  0.125000 -0.500000 -0.250000    0.00390625  65 t-inv F
 -0.125000  0.000000 -0.500000    0.00390625  67 t-inv F
 -0.250000  0.000000 -0.500000    0.00390625  68 t-inv F
 -0.375000  0.000000 -0.500000    0.00390625  69 t-inv F
  0.000000 -0.125000 -0.500000    0.00390625  71 t-inv F
 -0.125000 -0.125000 -0.500000    0.00390625  72 t-inv F
 -0.125000  0.125000 -0.500000    0.00390625  72 t-inv F
  0.125000 -0.125000  0.500000    0.00390625  72 t-inv F
 -0.250000 -0.125000 -0.500000    0.00390625  73 t-inv F
 -0.250000  0.125000 -0.500000    0.00390625  73 t-inv F
  0.250000 -0.125000  0.500000    0.00390625  73 t-inv F
 -0.375000 -0.125000 -0.500000    0.00390625  74 t-inv F
 -0.375000  0.125000 -0.500000    0.00390625  74 t-inv F
  0.375000 -0.125000  0.500000    0.00390625  74 t-inv F
 -0.500000 -0.125000 -0.500000    0.00390625  75 t-inv F
  0.000000 -0.250000 -0.500000    0.00390625  76 t-inv F
 -0.125000 -0.250000 -0.500000    0.00390625  77 t-inv F
 -0.125000  0.250000 -0.500000    0.00390625  77 t-inv F
  0.125000 -0.250000  0.500000    0.00390625  77 t-inv F
 -0.250000 -0.250000 -0.500000    0.00390625  78 t-inv F
 -0.250000  0.250000 -0.500000    0.00390625  78 t-inv F
  0.250000 -0.250000  0.500000    0.00390625  78 t-inv F
 -0.375000 -0.250000 -0.500000    0.00390625  79 t-inv F
 -0.375000  0.250000 -0.500000    0.00390625  79 t-inv F
  0.375000 -0.250000  0.500000    0.00390625  79 t-inv F
 -0.500000 -0.250000 -0.500000    0.00390625  80 t-inv F
  0.000000 -0.375000 -0.500000    0.00390625  81 t-inv F
 -0.125000 -0.375000 -0.500000    0.00390625  82 t-inv F
 -0.125000  0.375000 -0.500000    0.00390625  82 t-inv F
  0.125000 -0.375000  0.500000    0.00390625  82 t-inv F
 -0.250000 -0.375000 -0.500000    0.00390625  83 t-inv F
 -0.250000  0.375000 -0.500000    0.00390625  83 t-inv F
  0.250000 -0.375000  0.500000    0.00390625  83 t-inv F
 -0.375000 -0.375000 -0.500000    0.00390625  84 t-inv F
 -0.375000  0.375000 -0.500000    0.00390625  84 t-inv F
  0.375000 -0.375000  0.500000    0.00390625  84 t-inv F
 -0.500000 -0.375000 -0.500000    0.00390625  85 t-inv F
 -0.125000 -0.500000 -0.500000    0.00390625  87 t-inv F
 -0.250000 -0.500000 -0.500000    0.00390625  88 t-inv F
 -0.375000 -0.500000 -0.500000    0.00390625  89 t-inv F

 ----------------------------------------------------------------------------- 
|                                                                             |
|           W    W    AA    RRRRR   N    N  II  N    N   GGGG   !!!           |
|           W    W   A  A   R    R  NN   N  II  NN   N  G    G  !!!           |
|           W    W  A    A  R    R  N N  N  II  N N  N  G       !!!           |
|           W WW W  AAAAAA  RRRRR   N  N N  II  N  N N  G  GGG   !            |
|           WW  WW  A    A  R   R   N   NN  II  N   NN  G    G                |
|           W    W  A    A  R    R  N    N  II  N    N   GGGG   !!!           |
|                                                                             |
|      The number of bands has been changed from the values supplied          |
|      in the INCAR file. This is a result of running the parallel version.   |
|      The orbitals not found in the WAVECAR file will be initialized with    |
|      random numbers, which is usually adequate. For correlated              |
|      calculations, however, you should redo the groundstate calculation.    |
|      I found NBANDS    =       92  now  NBANDS  =      96                   |
|                                                                             |
 ----------------------------------------------------------------------------- 



--------------------------------------------------------------------------------------------------------




 Dimension of arrays:
   k-points           NKPTS =    316   k-points in BZ     NKDIM =    482   number of bands    NBANDS=     96
   number of dos      NEDOS =    301   number of ions     NIONS =      8
   non local maximal  LDIM  =      6   non local SUM 2l+1 LMDIM =     18
   total plane-waves  NPLWV =  31104
   max r-space proj   IRMAX =      1   max aug-charges    IRDMAX= 217955
   dimension x,y,z NGX =    24 NGY =   24 NGZ =   54
   dimension x,y,z NGXF=    48 NGYF=   48 NGZF=  108
   support grid    NGXF=    96 NGYF=   96 NGZF=  216
   ions per type =               6   2
   NGX,Y,Z   is equivalent  to a cutoff of  12.99, 13.05, 12.64 a.u.
   NGXF,Y,Z  is equivalent  to a cutoff of  25.98, 26.10, 25.28 a.u.

 SYSTEM =  matgen-band                             
 POSCAR =  H6 W2                                   

 Startparameter for this run:
   NWRITE =      2    write-flag & timer
   PREC   = accura    normal or accurate (medium, high low for compatibility)
   ISTART =      1    job   : 0-new  1-cont  2-samecut
   ICHARG =     11    charge: 1-file 2-atom 10-const
   ISPIN  =      2    spin polarized calculation?
   LNONCOLLINEAR =      F non collinear calculations
   LSORBIT =      F    spin-orbit coupling
   INIWAV =      1    electr: 0-lowe 1-rand  2-diag
   LASPH  =      F    aspherical Exc in radial PAW
   METAGGA=      F    non-selfconsistent MetaGGA calc.

 Electronic Relaxation 1
   ENCUT  =  520.0 eV  38.22 Ry    6.18 a.u.   5.71  5.68 13.21*2*pi/ulx,y,z
   ENINI  =  520.0     initial cutoff
   ENAUG  =  400.0 eV  augmentation charge cutoff
   NELM   =    140;   NELMIN=  6; NELMDL=  0     # of ELM steps 
   EDIFF  = 0.1E-03   stopping-criterion for ELM
   LREAL  =      F    real-space projection
   NLSPLINE    = F    spline interpolate recip. space projectors
   LCOMPAT=      F    compatible to vasp.4.4
   GGA_COMPAT  = T    GGA compatible to vasp.4.4-vasp.4.6
   LMAXPAW     = -100 max onsite density
   LMAXMIX     =    4 max onsite mixed and CHGCAR
   VOSKOWN=      0    Vosko Wilk Nusair interpolation
   ROPT   =    0.00000   0.00000
 Ionic relaxation
   EDIFFG = -.1E-01   stopping-criterion for IOM
   NSW    =      0    number of steps for IOM
   NBLOCK =      1;   KBLOCK =      1    inner block; outer block 
   IBRION =     -1    ionic relax: 0-MD 1-quasi-New 2-CG
   NFREE  =      0    steps in history (QN), initial steepest desc. (CG)
   ISIF   =      0    stress and relaxation
   IWAVPR =     10    prediction:  0-non 1-charg 2-wave 3-comb
   ISYM   =      3    0-nonsym 1-usesym 2-fastsym
   LCORR  =      T    Harris-Foulkes like correction to forces

   POTIM  = 0.0500    time-step for ionic-motion
   TEIN   =    0.0    initial temperature
   TEBEG  =    0.0;   TEEND  =   0.0 temperature during run
   SMASS  =  -3.00    Nose mass-parameter (am)
   estimated Nose-frequenzy (Omega)   =  0.10E-29 period in steps =****** mass=  -0.216E-27a.u.
   SCALEE = 1.0000    scale energy and forces
   NPACO  =    256;   APACO  = 16.0  distance and # of slots for P.C.
   PSTRESS=    0.0 pullay stress

  Mass of Ions in am
   POMASS =   1.00183.85
  Ionic Valenz
   ZVAL   =   1.00  6.00
  Atomic Wigner-Seitz radii
   RWIGS  =  -1.00 -1.00
  virtual crystal weights 
   VCA    =   1.00  1.00
   NELECT =      18.0000    total number of electrons
   NUPDOWN=      -1.0000    fix difference up-down

 DOS related values:
   EMIN   =  10.00;   EMAX   =-10.00  energy-range for DOS
   EFERMI =   0.00
   ISMEAR =     0;   SIGMA  =   0.05  broadening in eV -4-tet -1-fermi 0-gaus

 Electronic relaxation 2 (details)
   IALGO  =     53    algorithm
   LDIAG  =      T    sub-space diagonalisation (order eigenvalues)
   LSUBROT=      F    optimize rotation matrix (better conditioning)
   TURBO    =      0    0=normal 1=particle mesh
   IRESTART =      0    0=no restart 2=restart with 2 vectors
   NREBOOT  =      0    no. of reboots
   NMIN     =      0    reboot dimension
   EREF     =   0.00    reference energy to select bands
   IMIX   =      4    mixing-type and parameters
     AMIX     =   0.10;   BMIX     =  1.20
     AMIX_MAG =   0.40;   BMIX_MAG =  1.20
     AMIN     =   0.10
     WC   =   100.;   INIMIX=   1;  MIXPRE=   1;  MAXMIX= -45

 Intra band minimization:
   WEIMIN = 0.0000     energy-eigenvalue tresh-hold
   EBREAK =  0.26E-06  absolut break condition
   DEPER  =   0.30     relativ break condition  

   TIME   =   0.40     timestep for ELM

  volume/ion in A,a.u.               =       8.15        55.02
  Fermi-wavevector in a.u.,A,eV,Ry     =   1.065876  2.014213 15.457454  1.136091
  Thomas-Fermi vector in A             =   2.201442
 
 Write flags
   LWAVE        =      F    write WAVECAR
   LDOWNSAMPLE  =      F    k-point downsampling of WAVECAR
   LCHARG       =      T    write CHGCAR
   LVTOT        =      F    write LOCPOT, total local potential
   LVHAR        =      F    write LOCPOT, Hartree potential only
   LELF         =      F    write electronic localiz. function (ELF)
   LORBIT       =     11    0 simple, 1 ext, 2 COOP (PROOUT), +10 PAW based schemes


 Dipole corrections
   LMONO  =      F    monopole corrections only (constant potential shift)
   LDIPOL =      F    correct potential (dipole corrections)
   IDIPOL =      0    1-x, 2-y, 3-z, 4-all directions 
   EPSILON=  1.0000000 bulk dielectric constant

 LDA+U is selected, type is set to LDAUTYPE =  2
   angular momentum for each species LDAUL =    -1    2
   U (eV)           for each species LDAUU =   0.0  2.2
   J (eV)           for each species LDAUJ =   0.0  0.0
 Exchange correlation treatment:
   GGA     =    --    GGA type
   LEXCH   =     8    internal setting for exchange type
   VOSKOWN=      0    Vosko Wilk Nusair interpolation
   EXXOEP  =     0    0=HF, 1=EXX-LHF (local Hartree Fock) 2=EXX OEP
   LHFCALC =     T    Hartree Fock is set to
   LSYMGRAD=     F    symmetrize gradient (conserves proper symmetry)
   PRECFOCK=normal    Normal, Fast or Accurate (Low or Medium for compatibility)
   LRHFCALC=     F    long range Hartree Fock
   LRSCOR  =     F    long range correlation only (use DFT for short range part)
   LTHOMAS =     F    Thomas Fermi screening in HF
   LMODELHF=     F    short range full HF, long range fraction AEXX
   ENCUT4O =  -1.0   cutoff for four orbital integrals eV
   LMAXFOCK=     4    L truncation for augmentation on plane wave grid
   LMAXFOCKAE=  -1    L truncation for all-electron charge restoration on plane wave grid
   NMAXFOCKAE=   1    number of basis functions for all-electron charge restoration
   LFOCKAEDFT=     F  apply the AE augmentation even for DFT
   NKREDX  =     1    reduce k-point grid by
   NKREDY  =     1    reduce k-point grid by
   NKREDZ  =     1    reduce k-point grid by
   SHIFTRED=     F    shift reduced grid of Gamma
   HFKIDENT=     F    idential grid for each k-point
   ODDONLY =     F    use only odd q-grid points
   EVENONLY=     F    use only even q-grid points
   HFALPHA =   -1.0000 decay constant for conv. correction
   MCALPHA =    0.0000 extent of test-charge in conv. correction in multipole expansion
   AEXX    =    0.2500 exact exchange contribution
   HFSCREEN=    0.2000 screening length (either q_TF or 0.3 A-1)
   HFSCREENC=   0.2000 screening length for correlation (either q_TF or 0.3 A-1)
   HFRCUT  =    0.0000 spherical cutoff for potential kernel
   ALDAX   =    0.7500 LDA exchange part
   AGGAX   =    0.7500 GGA exchange part
   ALDAC   =    1.0000 LDA correlation
   AGGAC   =    1.0000 GGA correlation
   ENCUTFOCK=  -1.0 apply spherical cutoff to Coloumb kernel
   NBANDSGWLOW=     1    first orbital included in HF term
   NBLOCK_FOCK=    64    blocking factor in FOCK_ACC
 Linear response parameters
   LEPSILON=     F    determine dielectric tensor
   LRPA    =     F    only Hartree local field effects (RPA)
   LNABLA  =     F    use nabla operator in PAW spheres
   LVEL    =     F    velocity operator in full k-point grid
   LINTERFAST=   F  fast interpolation
   KINTER  =     0    interpolate to denser k-point grid
   CSHIFT  =0.1000    complex shift for real part using Kramers Kronig
   OMEGAMAX=  -1.0    maximum frequency
   DEG_THRESHOLD= 0.2000000E-02 threshold for treating states as degnerate
   RTIME   =   -0.100 relaxation time in fs
  (WPLASMAI=    0.000 imaginary part of plasma frequency in eV, 0.658/RTIME)
   DFIELD  = 0.0000000 0.0000000 0.0000000 field for delta impulse in time
 
 Orbital magnetization related:
   ORBITALMAG=     F  switch on orbital magnetization
   LCHIMAG   =     F  perturbation theory with respect to B field
   DQ        =  0.001000  dq finite difference perturbation B field
   LLRAUG    =     F  two centre corrections for induced B field



--------------------------------------------------------------------------------------------------------


 Static calculation
 charge density and potential remain constant during run
 spin polarized calculation
 Conjugate gradient for all bands (Freysoldt, et al. PRB 79, 241103 (2009))
 perform sub-space diagonalisation
    before iterative eigenvector-optimisation
 no mixing
 using additional bands           87
 reciprocal scheme for non local part
 use partial core corrections
 calculate Harris-corrections to forces 
   (improved forces if not selfconsistent)
 use gradient corrections 
 WARNING: stress and forces are not correct
  (second derivative of E(xc) not defined)
 use of overlap-Matrix (Vanderbilt PP)
 Gauss-broadening in eV      SIGMA  =   0.05


--------------------------------------------------------------------------------------------------------


  energy-cutoff  :      520.00
  volume of cell :       65.22
      direct lattice vectors                 reciprocal lattice vectors
     0.000000000  3.071257525  0.070744420     0.000000000  0.327041241 -0.062589719
     3.057456611  0.000000000  0.000000000     0.327069237  0.000000000  0.000000000
     0.000000000 -1.335119409 -6.976211344     0.000000000  0.003316462 -0.143978991

  length of vectors
     3.072072193  3.057456611  7.102821169     0.332976646  0.327069237  0.144017183


 
 old parameters found on file WAVECAR:
  energy-cutoff  :      520.00
  volume of cell :       65.22
      direct lattice vectors                 reciprocal lattice vectors
     0.000000000  3.071257525  0.070744420     0.000000000  0.327041241 -0.062589719
     3.057456611  0.000000000  0.000000000     0.327069237  0.000000000  0.000000000
     0.000000000 -1.335119409 -6.976211344     0.000000000  0.003316462 -0.143978991

  length of vectors

 
 k-points in units of 2pi/SCALE and weight: 0.040   8   8   4   90  0.040  226   10 
   0.00000000  0.00000000  0.00000000       0.004
   0.00000000  0.04088016 -0.00782371       0.008
   0.00000000  0.08176031 -0.01564743       0.008
   0.00000000  0.12264047 -0.02347114       0.008
   0.00000000  0.16352062 -0.03129486       0.004
   0.04088365  0.00000000  0.00000000       0.008
   0.04088365  0.04088016 -0.00782371       0.016
   0.04088365  0.08176031 -0.01564743       0.016
   0.04088365  0.12264047 -0.02347114       0.016
   0.04088365  0.16352062 -0.03129486       0.008
   0.08176731  0.00000000  0.00000000       0.008
   0.08176731  0.04088016 -0.00782371       0.016
   0.08176731  0.08176031 -0.01564743       0.016
   0.08176731  0.12264047 -0.02347114       0.016
   0.08176731  0.16352062 -0.03129486       0.008
   0.12265096  0.00000000  0.00000000       0.008
   0.12265096  0.04088016 -0.00782371       0.016
   0.12265096  0.08176031 -0.01564743       0.016
   0.12265096  0.12264047 -0.02347114       0.016
   0.12265096  0.16352062 -0.03129486       0.008
   0.16353462  0.00000000  0.00000000       0.004
   0.16353462  0.04088016 -0.00782371       0.008
   0.16353462  0.08176031 -0.01564743       0.008
   0.16353462  0.12264047 -0.02347114       0.008
   0.16353462  0.16352062 -0.03129486       0.004
   0.00000000  0.00082912 -0.03599475       0.008
   0.00000000  0.04170927 -0.04381846       0.008
   0.00000000  0.08258943 -0.05164218       0.008
   0.00000000  0.12346958 -0.05946589       0.008
   0.00000000  0.16434974 -0.06728961       0.008
   0.00000000 -0.12181135 -0.01252360       0.008
   0.00000000 -0.08093119 -0.02034732       0.008
   0.00000000 -0.04005104 -0.02817103       0.008
   0.04088365  0.00082912 -0.03599475       0.016
   0.04088365  0.04170927 -0.04381846       0.016
   0.04088365  0.08258943 -0.05164218       0.016
   0.04088365  0.12346958 -0.05946589       0.016
   0.04088365  0.16434974 -0.06728961       0.016
   0.04088365 -0.12181135 -0.01252360       0.016
   0.04088365 -0.08093119 -0.02034732       0.016
   0.04088365 -0.04005104 -0.02817103       0.016
   0.08176731  0.00082912 -0.03599475       0.016
   0.08176731  0.04170927 -0.04381846       0.016
   0.08176731  0.08258943 -0.05164218       0.016
   0.08176731  0.12346958 -0.05946589       0.016
   0.08176731  0.16434974 -0.06728961       0.016
   0.08176731 -0.12181135 -0.01252360       0.016
   0.08176731 -0.08093119 -0.02034732       0.016
   0.08176731 -0.04005104 -0.02817103       0.016
   0.12265096  0.00082912 -0.03599475       0.016
   0.12265096  0.04170927 -0.04381846       0.016
   0.12265096  0.08258943 -0.05164218       0.016
   0.12265096  0.12346958 -0.05946589       0.016
   0.12265096  0.16434974 -0.06728961       0.016
   0.12265096 -0.12181135 -0.01252360       0.016
   0.12265096 -0.08093119 -0.02034732       0.016
   0.12265096 -0.04005104 -0.02817103       0.016
   0.16353462  0.00082912 -0.03599475       0.008
   0.16353462  0.04170927 -0.04381846       0.008
   0.16353462  0.08258943 -0.05164218       0.008
   0.16353462  0.12346958 -0.05946589       0.008
   0.16353462  0.16434974 -0.06728961       0.008
   0.16353462 -0.12181135 -0.01252360       0.008
   0.16353462 -0.08093119 -0.02034732       0.008
   0.16353462 -0.04005104 -0.02817103       0.008
   0.00000000  0.00165823 -0.07198950       0.004
   0.00000000  0.04253839 -0.07981321       0.008
   0.00000000  0.08341854 -0.08763693       0.008
   0.00000000  0.12429870 -0.09546064       0.008
   0.00000000  0.16517885 -0.10328436       0.004
   0.04088365  0.00165823 -0.07198950       0.008
   0.04088365  0.04253839 -0.07981321       0.016
   0.04088365  0.08341854 -0.08763693       0.016
   0.04088365  0.12429870 -0.09546064       0.016
   0.04088365  0.16517885 -0.10328436       0.008
   0.08176731  0.00165823 -0.07198950       0.008
   0.08176731  0.04253839 -0.07981321       0.016
   0.08176731  0.08341854 -0.08763693       0.016
   0.08176731  0.12429870 -0.09546064       0.016
   0.08176731  0.16517885 -0.10328436       0.008
   0.12265096  0.00165823 -0.07198950       0.008
   0.12265096  0.04253839 -0.07981321       0.016
   0.12265096  0.08341854 -0.08763693       0.016
   0.12265096  0.12429870 -0.09546064       0.016
   0.12265096  0.16517885 -0.10328436       0.008
   0.16353462  0.00165823 -0.07198950       0.004
   0.16353462  0.04253839 -0.07981321       0.008
   0.16353462  0.08341854 -0.08763693       0.008
   0.16353462  0.12429870 -0.09546064       0.008
   0.16353462  0.16517885 -0.10328436       0.004
   0.00000000  0.00000000  0.00000000       0.000
   0.00681394  0.00000000  0.00000000       0.000
   0.01362788  0.00000000  0.00000000       0.000
   0.02044183  0.00000000  0.00000000       0.000
   0.02725577  0.00000000  0.00000000       0.000
   0.03406971  0.00000000  0.00000000       0.000
   0.04088365  0.00000000  0.00000000       0.000
   0.04769760  0.00000000  0.00000000       0.000
   0.05451154  0.00000000  0.00000000       0.000
   0.06132548  0.00000000  0.00000000       0.000
   0.06813942  0.00000000  0.00000000       0.000
   0.07495337  0.00000000  0.00000000       0.000
   0.08176731  0.00000000  0.00000000       0.000
   0.08858125  0.00000000  0.00000000       0.000
   0.09539519  0.00000000  0.00000000       0.000
   0.10220914  0.00000000  0.00000000       0.000
   0.10902308  0.00000000  0.00000000       0.000
   0.11583702  0.00000000  0.00000000       0.000
   0.12265096  0.00000000  0.00000000       0.000
   0.12946491  0.00000000  0.00000000       0.000
   0.13627885  0.00000000  0.00000000       0.000
   0.14309279  0.00000000  0.00000000       0.000
   0.14990673  0.00000000  0.00000000       0.000
   0.15672068  0.00000000  0.00000000       0.000
   0.16353462  0.00000000  0.00000000       0.000
   0.16353462  0.00000000  0.00000000       0.000
   0.16353462  0.00016582 -0.00719895       0.000
   0.16353462  0.00033165 -0.01439790       0.000
   0.16353462  0.00049747 -0.02159685       0.000
   0.16353462  0.00066329 -0.02879580       0.000
   0.16353462  0.00082912 -0.03599475       0.000
   0.16353462  0.00099494 -0.04319370       0.000
   0.16353462  0.00116076 -0.05039265       0.000
   0.16353462  0.00132658 -0.05759160       0.000
   0.16353462  0.00149241 -0.06479055       0.000
   0.16353462  0.00165823 -0.07198950       0.000
   0.16353462  0.00165823 -0.07198950       0.000
   0.15672068  0.00165823 -0.07198950       0.000
   0.14990673  0.00165823 -0.07198950       0.000
   0.14309279  0.00165823 -0.07198950       0.000
   0.13627885  0.00165823 -0.07198950       0.000
   0.12946491  0.00165823 -0.07198950       0.000
   0.12265096  0.00165823 -0.07198950       0.000
   0.11583702  0.00165823 -0.07198950       0.000
   0.10902308  0.00165823 -0.07198950       0.000
   0.10220914  0.00165823 -0.07198950       0.000
   0.09539519  0.00165823 -0.07198950       0.000
   0.08858125  0.00165823 -0.07198950       0.000
   0.08176731  0.00165823 -0.07198950       0.000
   0.07495337  0.00165823 -0.07198950       0.000
   0.06813942  0.00165823 -0.07198950       0.000
   0.06132548  0.00165823 -0.07198950       0.000
   0.05451154  0.00165823 -0.07198950       0.000
   0.04769760  0.00165823 -0.07198950       0.000
   0.04088365  0.00165823 -0.07198950       0.000
   0.03406971  0.00165823 -0.07198950       0.000
   0.02725577  0.00165823 -0.07198950       0.000
   0.02044183  0.00165823 -0.07198950       0.000
   0.01362788  0.00165823 -0.07198950       0.000
   0.00681394  0.00165823 -0.07198950       0.000
   0.00000000  0.00165823 -0.07198950       0.000
   0.00000000  0.00165823 -0.07198950       0.000
   0.00000000  0.00149241 -0.06479055       0.000
   0.00000000  0.00132658 -0.05759160       0.000
   0.00000000  0.00116076 -0.05039265       0.000
   0.00000000  0.00099494 -0.04319370       0.000
   0.00000000  0.00082912 -0.03599475       0.000
   0.00000000  0.00066329 -0.02879580       0.000
   0.00000000  0.00049747 -0.02159685       0.000
   0.00000000  0.00033165 -0.01439790       0.000
   0.00000000  0.00016582 -0.00719895       0.000
   0.00000000  0.00000000  0.00000000       0.000
   0.00000000  0.00000000  0.00000000       0.000
   0.00000000 -0.00647450 -0.00162779       0.000
   0.00000000 -0.01294899 -0.00325557       0.000
   0.00000000 -0.01942349 -0.00488336       0.000
   0.00000000 -0.02589798 -0.00651114       0.000
   0.00000000 -0.03237248 -0.00813893       0.000
   0.00000000 -0.03884697 -0.00976671       0.000
   0.00000000 -0.04532147 -0.01139450       0.000
   0.00000000 -0.05179596 -0.01302228       0.000
   0.00000000 -0.05827046 -0.01465007       0.000
   0.00000000 -0.06474496 -0.01627785       0.000
   0.00000000 -0.07121945 -0.01790564       0.000
   0.00000000 -0.07769395 -0.01953343       0.000
   0.00000000 -0.08416844 -0.02116121       0.000
   0.00000000 -0.09064294 -0.02278900       0.000
   0.00000000 -0.09711743 -0.02441678       0.000
   0.00000000 -0.10359193 -0.02604457       0.000
   0.00000000 -0.11006642 -0.02767235       0.000
   0.00000000 -0.11654092 -0.02930014       0.000
   0.00000000 -0.12301542 -0.03092792       0.000
   0.00000000 -0.12948991 -0.03255571       0.000
   0.00000000 -0.13596441 -0.03418349       0.000
   0.00000000 -0.14243890 -0.03581128       0.000
   0.00000000 -0.14891340 -0.03743907       0.000
   0.00000000 -0.15538789 -0.03906685       0.000
   0.00000000 -0.16186239 -0.04069464       0.000
   0.00000000 -0.16186239 -0.04069464       0.000
   0.00681394 -0.16186239 -0.04069464       0.000
   0.01362788 -0.16186239 -0.04069464       0.000
   0.02044183 -0.16186239 -0.04069464       0.000
   0.02725577 -0.16186239 -0.04069464       0.000
   0.03406971 -0.16186239 -0.04069464       0.000
   0.04088365 -0.16186239 -0.04069464       0.000
   0.04769760 -0.16186239 -0.04069464       0.000
   0.05451154 -0.16186239 -0.04069464       0.000
   0.06132548 -0.16186239 -0.04069464       0.000
   0.06813942 -0.16186239 -0.04069464       0.000
   0.07495337 -0.16186239 -0.04069464       0.000
   0.08176731 -0.16186239 -0.04069464       0.000
   0.08858125 -0.16186239 -0.04069464       0.000
   0.09539519 -0.16186239 -0.04069464       0.000
   0.10220914 -0.16186239 -0.04069464       0.000
   0.10902308 -0.16186239 -0.04069464       0.000
   0.11583702 -0.16186239 -0.04069464       0.000
   0.12265096 -0.16186239 -0.04069464       0.000
   0.12946491 -0.16186239 -0.04069464       0.000
   0.13627885 -0.16186239 -0.04069464       0.000
   0.14309279 -0.16186239 -0.04069464       0.000
   0.14990673 -0.16186239 -0.04069464       0.000
   0.15672068 -0.16186239 -0.04069464       0.000
   0.16353462 -0.16186239 -0.04069464       0.000
   0.16353462 -0.16186239 -0.04069464       0.000
   0.16353462 -0.15538789 -0.03906685       0.000
   0.16353462 -0.14891340 -0.03743907       0.000
   0.16353462 -0.14243890 -0.03581128       0.000
   0.16353462 -0.13596441 -0.03418349       0.000
   0.16353462 -0.12948991 -0.03255571       0.000
   0.16353462 -0.12301542 -0.03092792       0.000
   0.16353462 -0.11654092 -0.02930014       0.000
   0.16353462 -0.11006642 -0.02767235       0.000
   0.16353462 -0.10359193 -0.02604457       0.000
   0.16353462 -0.09711743 -0.02441678       0.000
   0.16353462 -0.09064294 -0.02278900       0.000
   0.16353462 -0.08416844 -0.02116121       0.000
   0.16353462 -0.07769395 -0.01953343       0.000
   0.16353462 -0.07121945 -0.01790564       0.000
   0.16353462 -0.06474496 -0.01627785       0.000
   0.16353462 -0.05827046 -0.01465007       0.000
   0.16353462 -0.05179596 -0.01302228       0.000
   0.16353462 -0.04532147 -0.01139450       0.000
   0.16353462 -0.03884697 -0.00976671       0.000
   0.16353462 -0.03237248 -0.00813893       0.000
   0.16353462 -0.02589798 -0.00651114       0.000
   0.16353462 -0.01942349 -0.00488336       0.000
   0.16353462 -0.01294899 -0.00325557       0.000
   0.16353462 -0.00647450 -0.00162779       0.000
   0.16353462  0.00000000  0.00000000       0.000
   0.16353462  0.00000000  0.00000000       0.000
   0.16353462 -0.00654082  0.00125179       0.000
   0.16353462 -0.01308165  0.00250359       0.000
   0.16353462 -0.01962247  0.00375538       0.000
   0.16353462 -0.02616330  0.00500718       0.000
   0.16353462 -0.03270412  0.00625897       0.000
   0.16353462 -0.03924495  0.00751077       0.000
   0.16353462 -0.04578577  0.00876256       0.000
   0.16353462 -0.05232660  0.01001436       0.000
   0.16353462 -0.05886742  0.01126615       0.000
   0.16353462 -0.06540825  0.01251794       0.000
   0.16353462 -0.07194907  0.01376974       0.000
   0.16353462 -0.07848990  0.01502153       0.000
   0.16353462 -0.08503072  0.01627333       0.000
   0.16353462 -0.09157155  0.01752512       0.000
   0.16353462 -0.09811237  0.01877692       0.000
   0.16353462 -0.10465320  0.02002871       0.000
   0.16353462 -0.11119402  0.02128050       0.000
   0.16353462 -0.11773485  0.02253230       0.000
   0.16353462 -0.12427567  0.02378409       0.000
   0.16353462 -0.13081650  0.02503589       0.000
   0.16353462 -0.13735732  0.02628768       0.000
   0.16353462 -0.14389815  0.02753948       0.000
   0.16353462 -0.15043897  0.02879127       0.000
   0.16353462 -0.15697980  0.03004307       0.000
   0.16353462 -0.16352062  0.03129486       0.000
   0.16353462 -0.16352062  0.03129486       0.000
   0.15672068 -0.16352062  0.03129486       0.000
   0.14990673 -0.16352062  0.03129486       0.000
   0.14309279 -0.16352062  0.03129486       0.000
   0.13627885 -0.16352062  0.03129486       0.000
   0.12946491 -0.16352062  0.03129486       0.000
   0.12265096 -0.16352062  0.03129486       0.000
   0.11583702 -0.16352062  0.03129486       0.000
   0.10902308 -0.16352062  0.03129486       0.000
   0.10220914 -0.16352062  0.03129486       0.000
   0.09539519 -0.16352062  0.03129486       0.000
   0.08858125 -0.16352062  0.03129486       0.000
   0.08176731 -0.16352062  0.03129486       0.000
   0.07495337 -0.16352062  0.03129486       0.000
   0.06813942 -0.16352062  0.03129486       0.000
   0.06132548 -0.16352062  0.03129486       0.000
   0.05451154 -0.16352062  0.03129486       0.000
   0.04769760 -0.16352062  0.03129486       0.000
   0.04088365 -0.16352062  0.03129486       0.000
   0.03406971 -0.16352062  0.03129486       0.000
   0.02725577 -0.16352062  0.03129486       0.000
   0.02044183 -0.16352062  0.03129486       0.000
   0.01362788 -0.16352062  0.03129486       0.000
   0.00681394 -0.16352062  0.03129486       0.000
   0.00000000 -0.16352062  0.03129486       0.000
   0.00000000 -0.16352062  0.03129486       0.000
   0.00000000 -0.15697980  0.03004307       0.000
   0.00000000 -0.15043897  0.02879127       0.000
   0.00000000 -0.14389815  0.02753948       0.000
   0.00000000 -0.13735732  0.02628768       0.000
   0.00000000 -0.13081650  0.02503589       0.000
   0.00000000 -0.12427567  0.02378409       0.000
   0.00000000 -0.11773485  0.02253230       0.000
   0.00000000 -0.11119402  0.02128050       0.000
   0.00000000 -0.10465320  0.02002871       0.000
   0.00000000 -0.09811237  0.01877692       0.000
   0.00000000 -0.09157155  0.01752512       0.000
   0.00000000 -0.08503072  0.01627333       0.000
   0.00000000 -0.07848990  0.01502153       0.000
   0.00000000 -0.07194907  0.01376974       0.000
   0.00000000 -0.06540825  0.01251794       0.000
   0.00000000 -0.05886742  0.01126615       0.000
   0.00000000 -0.05232660  0.01001436       0.000
   0.00000000 -0.04578577  0.00876256       0.000
   0.00000000 -0.03924495  0.00751077       0.000
   0.00000000 -0.03270412  0.00625897       0.000
   0.00000000 -0.02616330  0.00500718       0.000
   0.00000000 -0.01962247  0.00375538       0.000
   0.00000000 -0.01308165  0.00250359       0.000
   0.00000000 -0.00654082  0.00125179       0.000
   0.00000000  0.00000000  0.00000000       0.000
 
 k-points in reciprocal lattice and weights: 0.040   8   8   4   90  0.040  226   10 
   0.00000000  0.00000000  0.00000000       0.004
   0.12500000  0.00000000  0.00000000       0.008
   0.25000000  0.00000000  0.00000000       0.008
   0.37500000  0.00000000  0.00000000       0.008
   0.50000000  0.00000000  0.00000000       0.004
   0.00000000  0.12500000  0.00000000       0.008
   0.12500000  0.12500000  0.00000000       0.016
   0.25000000  0.12500000  0.00000000       0.016
   0.37500000  0.12500000  0.00000000       0.016
   0.50000000  0.12500000  0.00000000       0.008
   0.00000000  0.25000000  0.00000000       0.008
   0.12500000  0.25000000  0.00000000       0.016
   0.25000000  0.25000000  0.00000000       0.016
   0.37500000  0.25000000  0.00000000       0.016
   0.50000000  0.25000000  0.00000000       0.008
   0.00000000  0.37500000  0.00000000       0.008
   0.12500000  0.37500000  0.00000000       0.016
   0.25000000  0.37500000  0.00000000       0.016
   0.37500000  0.37500000  0.00000000       0.016
   0.50000000  0.37500000  0.00000000       0.008
   0.00000000  0.50000000  0.00000000       0.004
   0.12500000  0.50000000  0.00000000       0.008
   0.25000000  0.50000000  0.00000000       0.008
   0.37500000  0.50000000  0.00000000       0.008
   0.50000000  0.50000000  0.00000000       0.004
   0.00000000  0.00000000  0.25000000       0.008
   0.12500000  0.00000000  0.25000000       0.008
   0.25000000  0.00000000  0.25000000       0.008
   0.37500000  0.00000000  0.25000000       0.008
   0.50000000  0.00000000  0.25000000       0.008
  -0.37500000  0.00000000  0.25000000       0.008
  -0.25000000  0.00000000  0.25000000       0.008
  -0.12500000  0.00000000  0.25000000       0.008
   0.00000000  0.12500000  0.25000000       0.016
   0.12500000  0.12500000  0.25000000       0.016
   0.25000000  0.12500000  0.25000000       0.016
   0.37500000  0.12500000  0.25000000       0.016
   0.50000000  0.12500000  0.25000000       0.016
  -0.37500000  0.12500000  0.25000000       0.016
  -0.25000000  0.12500000  0.25000000       0.016
  -0.12500000  0.12500000  0.25000000       0.016
   0.00000000  0.25000000  0.25000000       0.016
   0.12500000  0.25000000  0.25000000       0.016
   0.25000000  0.25000000  0.25000000       0.016
   0.37500000  0.25000000  0.25000000       0.016
   0.50000000  0.25000000  0.25000000       0.016
  -0.37500000  0.25000000  0.25000000       0.016
  -0.25000000  0.25000000  0.25000000       0.016
  -0.12500000  0.25000000  0.25000000       0.016
   0.00000000  0.37500000  0.25000000       0.016
   0.12500000  0.37500000  0.25000000       0.016
   0.25000000  0.37500000  0.25000000       0.016
   0.37500000  0.37500000  0.25000000       0.016
   0.50000000  0.37500000  0.25000000       0.016
  -0.37500000  0.37500000  0.25000000       0.016
  -0.25000000  0.37500000  0.25000000       0.016
  -0.12500000  0.37500000  0.25000000       0.016
   0.00000000  0.50000000  0.25000000       0.008
   0.12500000  0.50000000  0.25000000       0.008
   0.25000000  0.50000000  0.25000000       0.008
   0.37500000  0.50000000  0.25000000       0.008
   0.50000000  0.50000000  0.25000000       0.008
  -0.37500000  0.50000000  0.25000000       0.008
  -0.25000000  0.50000000  0.25000000       0.008
  -0.12500000  0.50000000  0.25000000       0.008
   0.00000000  0.00000000  0.50000000       0.004
   0.12500000  0.00000000  0.50000000       0.008
   0.25000000  0.00000000  0.50000000       0.008
   0.37500000  0.00000000  0.50000000       0.008
   0.50000000  0.00000000  0.50000000       0.004
   0.00000000  0.12500000  0.50000000       0.008
   0.12500000  0.12500000  0.50000000       0.016
   0.25000000  0.12500000  0.50000000       0.016
   0.37500000  0.12500000  0.50000000       0.016
   0.50000000  0.12500000  0.50000000       0.008
   0.00000000  0.25000000  0.50000000       0.008
   0.12500000  0.25000000  0.50000000       0.016
   0.25000000  0.25000000  0.50000000       0.016
   0.37500000  0.25000000  0.50000000       0.016
   0.50000000  0.25000000  0.50000000       0.008
   0.00000000  0.37500000  0.50000000       0.008
   0.12500000  0.37500000  0.50000000       0.016
   0.25000000  0.37500000  0.50000000       0.016
   0.37500000  0.37500000  0.50000000       0.016
   0.50000000  0.37500000  0.50000000       0.008
   0.00000000  0.50000000  0.50000000       0.004
   0.12500000  0.50000000  0.50000000       0.008
   0.25000000  0.50000000  0.50000000       0.008
   0.37500000  0.50000000  0.50000000       0.008
   0.50000000  0.50000000  0.50000000       0.004
   0.00000000  0.00000000  0.00000000       0.000
   0.00000000  0.02083333  0.00000000       0.000
   0.00000000  0.04166667  0.00000000       0.000
   0.00000000  0.06250000  0.00000000       0.000
   0.00000000  0.08333333  0.00000000       0.000
   0.00000000  0.10416667  0.00000000       0.000
   0.00000000  0.12500000  0.00000000       0.000
   0.00000000  0.14583333  0.00000000       0.000
   0.00000000  0.16666667  0.00000000       0.000
   0.00000000  0.18750000  0.00000000       0.000
   0.00000000  0.20833333  0.00000000       0.000
   0.00000000  0.22916667  0.00000000       0.000
   0.00000000  0.25000000  0.00000000       0.000
   0.00000000  0.27083333  0.00000000       0.000
   0.00000000  0.29166667  0.00000000       0.000
   0.00000000  0.31250000  0.00000000       0.000
   0.00000000  0.33333333  0.00000000       0.000
   0.00000000  0.35416667  0.00000000       0.000
   0.00000000  0.37500000  0.00000000       0.000
   0.00000000  0.39583333  0.00000000       0.000
   0.00000000  0.41666667  0.00000000       0.000
   0.00000000  0.43750000  0.00000000       0.000
   0.00000000  0.45833333  0.00000000       0.000
   0.00000000  0.47916667  0.00000000       0.000
   0.00000000  0.50000000  0.00000000       0.000
   0.00000000  0.50000000  0.00000000       0.000
   0.00000000  0.50000000  0.05000000       0.000
   0.00000000  0.50000000  0.10000000       0.000
   0.00000000  0.50000000  0.15000000       0.000
   0.00000000  0.50000000  0.20000000       0.000
   0.00000000  0.50000000  0.25000000       0.000
   0.00000000  0.50000000  0.30000000       0.000
   0.00000000  0.50000000  0.35000000       0.000
   0.00000000  0.50000000  0.40000000       0.000
   0.00000000  0.50000000  0.45000000       0.000
   0.00000000  0.50000000  0.50000000       0.000
   0.00000000  0.50000000  0.50000000       0.000
   0.00000000  0.47916667  0.50000000       0.000
   0.00000000  0.45833333  0.50000000       0.000
   0.00000000  0.43750000  0.50000000       0.000
   0.00000000  0.41666667  0.50000000       0.000
   0.00000000  0.39583333  0.50000000       0.000
   0.00000000  0.37500000  0.50000000       0.000
   0.00000000  0.35416667  0.50000000       0.000
   0.00000000  0.33333333  0.50000000       0.000
   0.00000000  0.31250000  0.50000000       0.000
   0.00000000  0.29166667  0.50000000       0.000
   0.00000000  0.27083333  0.50000000       0.000
   0.00000000  0.25000000  0.50000000       0.000
   0.00000000  0.22916667  0.50000000       0.000
   0.00000000  0.20833333  0.50000000       0.000
   0.00000000  0.18750000  0.50000000       0.000
   0.00000000  0.16666667  0.50000000       0.000
   0.00000000  0.14583333  0.50000000       0.000
   0.00000000  0.12500000  0.50000000       0.000
   0.00000000  0.10416667  0.50000000       0.000
   0.00000000  0.08333333  0.50000000       0.000
   0.00000000  0.06250000  0.50000000       0.000
   0.00000000  0.04166667  0.50000000       0.000
   0.00000000  0.02083333  0.50000000       0.000
   0.00000000  0.00000000  0.50000000       0.000
   0.00000000  0.00000000  0.50000000       0.000
   0.00000000  0.00000000  0.45000000       0.000
   0.00000000  0.00000000  0.40000000       0.000
   0.00000000  0.00000000  0.35000000       0.000
   0.00000000  0.00000000  0.30000000       0.000
   0.00000000  0.00000000  0.25000000       0.000
   0.00000000  0.00000000  0.20000000       0.000
   0.00000000  0.00000000  0.15000000       0.000
   0.00000000  0.00000000  0.10000000       0.000
   0.00000000  0.00000000  0.05000000       0.000
   0.00000000  0.00000000  0.00000000       0.000
   0.00000000  0.00000000  0.00000000       0.000
  -0.02000000  0.00000000  0.02000000       0.000
  -0.04000000  0.00000000  0.04000000       0.000
  -0.06000000  0.00000000  0.06000000       0.000
  -0.08000000  0.00000000  0.08000000       0.000
  -0.10000000  0.00000000  0.10000000       0.000
  -0.12000000  0.00000000  0.12000000       0.000
  -0.14000000  0.00000000  0.14000000       0.000
  -0.16000000  0.00000000  0.16000000       0.000
  -0.18000000  0.00000000  0.18000000       0.000
  -0.20000000  0.00000000  0.20000000       0.000
  -0.22000000  0.00000000  0.22000000       0.000
  -0.24000000  0.00000000  0.24000000       0.000
  -0.26000000  0.00000000  0.26000000       0.000
  -0.28000000  0.00000000  0.28000000       0.000
  -0.30000000  0.00000000  0.30000000       0.000
  -0.32000000  0.00000000  0.32000000       0.000
  -0.34000000  0.00000000  0.34000000       0.000
  -0.36000000  0.00000000  0.36000000       0.000
  -0.38000000  0.00000000  0.38000000       0.000
  -0.40000000  0.00000000  0.40000000       0.000
  -0.42000000  0.00000000  0.42000000       0.000
  -0.44000000  0.00000000  0.44000000       0.000
  -0.46000000  0.00000000  0.46000000       0.000
  -0.48000000  0.00000000  0.48000000       0.000
  -0.50000000  0.00000000  0.50000000       0.000
  -0.50000000  0.00000000  0.50000000       0.000
  -0.50000000  0.02083333  0.50000000       0.000
  -0.50000000  0.04166667  0.50000000       0.000
  -0.50000000  0.06250000  0.50000000       0.000
  -0.50000000  0.08333333  0.50000000       0.000
  -0.50000000  0.10416667  0.50000000       0.000
  -0.50000000  0.12500000  0.50000000       0.000
  -0.50000000  0.14583333  0.50000000       0.000
  -0.50000000  0.16666667  0.50000000       0.000
  -0.50000000  0.18750000  0.50000000       0.000
  -0.50000000  0.20833333  0.50000000       0.000
  -0.50000000  0.22916667  0.50000000       0.000
  -0.50000000  0.25000000  0.50000000       0.000
  -0.50000000  0.27083333  0.50000000       0.000
  -0.50000000  0.29166667  0.50000000       0.000
  -0.50000000  0.31250000  0.50000000       0.000
[...]
     76      51.8901      0.00000
     77      52.9946      0.00000
     78      53.5533      0.00000
     79      53.6517      0.00000
     80      55.2761      0.00000
     81      55.9733      0.00000
     82      57.0506      0.00000
     83      59.0695      0.00000
     84      59.3651      0.00000
     85      59.9026      0.00000
     86      60.9884      0.00000
     87      61.8812      0.00000
     88      62.3263      0.00000
     89      62.4524      0.00000
     90      63.1189      0.00000
     91      63.1970      0.00000
     92      64.6006      0.00000
     93      65.4870      0.00000
     94      65.7410      0.00000
     95      66.2782      0.00000
     96      67.9093      0.00000

 k-point   314 :      -0.0400    0.0000    0.0000
  band No.  band energies     occupation 
      1     -10.0186      1.00000
      2      -7.7345      1.00000
      3      -3.0820      1.00000
      4      -2.5546      1.00000
      5      -2.0574      1.00000
      6      -0.9482      1.00000
      7       1.6982      1.00000
      8       1.7931      1.00000
      9       3.6809      0.00000
     10       4.9502      0.00000
     11       5.3560      0.00000
     12       5.4106      0.00000
     13       6.4305      0.00000
     14       7.2225      0.00000
     15       9.5873      0.00000
     16       9.9760      0.00000
     17      10.6724      0.00000
     18      11.9782      0.00000
     19      12.9259      0.00000
     20      14.4853      0.00000
     21      15.7376      0.00000
     22      17.7520      0.00000
     23      18.3361      0.00000
     24      19.2122      0.00000
     25      19.7527      0.00000
     26      21.3416      0.00000
     27      21.9342      0.00000
     28      22.0876      0.00000
     29      23.1434      0.00000
     30      24.5986      0.00000
     31      25.7599      0.00000
     32      26.9963      0.00000
     33      27.2688      0.00000
     34      28.1040      0.00000
     35      28.9228      0.00000
     36      29.4254      0.00000
     37      29.5896      0.00000
     38      30.7173      0.00000
     39      31.1378      0.00000
     40      32.4917      0.00000
     41      33.1776      0.00000
     42      33.4700      0.00000
     43      33.6586      0.00000
     44      34.2975      0.00000
     45      34.6121      0.00000
     46      35.0297      0.00000
     47      35.1187      0.00000
     48      35.3679      0.00000
     49      35.5198      0.00000
     50      37.9345      0.00000
     51      38.4227      0.00000
     52      39.2487      0.00000
     53      39.7352      0.00000
     54      39.7813      0.00000
     55      39.8363      0.00000
     56      39.8407      0.00000
     57      39.8621      0.00000
     58      39.8767      0.00000
     59      40.0595      0.00000
     60      40.1131      0.00000
     61      40.7933      0.00000
     62      40.9440      0.00000
     63      43.1002      0.00000
     64      43.3974      0.00000
     65      43.6243      0.00000
     66      44.0276      0.00000
     67      44.8073      0.00000
     68      45.6344      0.00000
     69      46.9379      0.00000
     70      47.7449      0.00000
     71      48.1977      0.00000
     72      48.5066      0.00000
     73      50.9147      0.00000
     74      50.9345      0.00000
     75      51.3794      0.00000
     76      51.8594      0.00000
     77      52.9452      0.00000
     78      53.5956      0.00000
     79      54.2296      0.00000
     80      55.3368      0.00000
     81      55.7104      0.00000
     82      58.9150      0.00000
     83      58.9151      0.00000
     84      59.0700      0.00000
     85      59.3289      0.00000
     86      60.1589      0.00000
     87      61.2990      0.00000
     88      61.4192      0.00000
     89      62.7684      0.00000
     90      62.8244      0.00000
     91      63.3425      0.00000
     92      64.1207      0.00000
     93      65.4423      0.00000
     94      65.5340      0.00000
     95      65.8283      0.00000
     96      67.8668      0.00000

 k-point   315 :      -0.0200    0.0000    0.0000
  band No.  band energies     occupation 
      1     -10.0463      1.00000
      2      -7.7543      1.00000
      3      -3.1003      1.00000
      4      -2.5188      1.00000
      5      -2.0956      1.00000
      6      -0.9408      1.00000
      7       1.7280      1.00000
      8       1.7966      1.00000
      9       3.7607      0.00000
     10       5.0511      0.00000
     11       5.3090      0.00000
     12       5.3460      0.00000
     13       6.4725      0.00000
     14       7.1952      0.00000
     15       9.5632      0.00000
     16       9.9971      0.00000
     17      10.6993      0.00000
     18      12.0453      0.00000
     19      12.8419      0.00000
     20      14.4627      0.00000
     21      15.6266      0.00000
     22      17.7747      0.00000
     23      18.3147      0.00000
     24      19.1991      0.00000
     25      19.7801      0.00000
     26      21.3423      0.00000
     27      21.7596      0.00000
     28      22.0303      0.00000
     29      23.1685      0.00000
     30      24.6873      0.00000
     31      25.7835      0.00000
     32      27.1744      0.00000
     33      27.4154      0.00000
     34      28.2891      0.00000
     35      29.0868      0.00000
     36      29.1474      0.00000
     37      29.2781      0.00000
     38      30.7730      0.00000
     39      31.2489      0.00000
     40      32.4515      0.00000
     41      33.0023      0.00000
     42      33.7419      0.00000
     43      33.8403      0.00000
     44      34.1751      0.00000
     45      34.3789      0.00000
     46      35.0870      0.00000
     47      35.1003      0.00000
     48      35.3590      0.00000
     49      35.3858      0.00000
     50      38.0273      0.00000
     51      38.5235      0.00000
     52      39.3938      0.00000
     53      39.7598      0.00000
     54      39.7868      0.00000
     55      39.8409      0.00000
     56      39.8623      0.00000
     57      39.9086      0.00000
     58      39.9282      0.00000
     59      39.9748      0.00000
     60      40.6579      0.00000
     61      40.6814      0.00000
     62      41.1808      0.00000
     63      42.6239      0.00000
     64      43.1673      0.00000
     65      43.2283      0.00000
     66      44.1154      0.00000
     67      44.9812      0.00000
     68      45.9663      0.00000
     69      46.9908      0.00000
     70      47.4717      0.00000
     71      47.9659      0.00000
     72      48.2164      0.00000
     73      50.6530      0.00000
     74      51.0393      0.00000
     75      51.6914      0.00000
     76      51.7387      0.00000
     77      52.7290      0.00000
     78      53.5725      0.00000
     79      54.5841      0.00000
     80      55.6766      0.00000
     81      55.7339      0.00000
     82      58.3020      0.00000
     83      58.8122      0.00000
     84      59.0544      0.00000
     85      59.4846      0.00000
     86      60.8608      0.00000
     87      60.9242      0.00000
     88      61.8097      0.00000
     89      62.8512      0.00000
     90      62.9660      0.00000
     91      63.1115      0.00000
     92      63.7758      0.00000
     93      64.6899      0.00000
     94      66.0142      0.00000
     95      67.4504      0.00000
     96      68.9178      0.00000

 k-point   316 :       0.0000    0.0000    0.0000
  band No.  band energies     occupation 
      1     -10.0555      1.00000
      2      -7.7609      1.00000
      3      -3.1067      1.00000
      4      -2.5052      1.00000
      5      -2.1099      1.00000
      6      -0.9385      1.00000
      7       1.7380      1.00000
      8       1.7979      1.00000
      9       3.7898      0.00000
     10       5.1024      0.00000
     11       5.2722      0.00000
     12       5.3266      0.00000
     13       6.4874      0.00000
     14       7.1857      0.00000
     15       9.5503      0.00000
     16      10.0083      0.00000
     17      10.7097      0.00000
     18      12.0739      0.00000
     19      12.8090      0.00000
     20      14.4547      0.00000
     21      15.5882      0.00000
     22      17.7821      0.00000
     23      18.3064      0.00000
     24      19.1924      0.00000
     25      19.7979      0.00000
     26      21.3432      0.00000
     27      21.6878      0.00000
     28      22.0174      0.00000
     29      23.1805      0.00000
     30      24.7117      0.00000
     31      25.7959      0.00000
     32      27.2759      0.00000
     33      27.4224      0.00000
     34      28.4828      0.00000
     35      28.8306      0.00000
     36      29.2081      0.00000
     37      29.2110      0.00000
     38      30.7960      0.00000
     39      31.2845      0.00000
     40      32.4380      0.00000
     41      32.9328      0.00000
     42      33.8946      0.00000
     43      33.9960      0.00000
     44      34.0610      0.00000
     45      34.2191      0.00000
     46      35.1160      0.00000
     47      35.1195      0.00000
     48      35.2198      0.00000
     49      35.4418      0.00000
     50      38.0494      0.00000
     51      38.5527      0.00000
     52      39.5249      0.00000
     53      39.7421      0.00000
     54      39.7531      0.00000
     55      39.7869      0.00000
     56      39.7955      0.00000
     57      39.8430      0.00000
     58      39.9016      0.00000
     59      40.0108      0.00000
     60      40.2926      0.00000
     61      41.0104      0.00000
     62      41.5925      0.00000
     63      42.3212      0.00000
     64      43.0267      0.00000
     65      43.0595      0.00000
     66      43.9209      0.00000
     67      44.8106      0.00000
     68      46.2856      0.00000
     69      46.8325      0.00000
     70      47.4475      0.00000
     71      47.8080      0.00000
     72      48.5810      0.00000
     73      50.5032      0.00000
     74      50.9427      0.00000
     75      51.7046      0.00000
     76      52.0185      0.00000
     77      52.6103      0.00000
     78      53.6008      0.00000
     79      54.3900      0.00000
     80      55.7523      0.00000
     81      55.9895      0.00000
     82      58.9013      0.00000
     83      58.9341      0.00000
     84      59.0584      0.00000
     85      59.9441      0.00000
     86      60.5448      0.00000
     87      61.4187      0.00000
     88      62.1224      0.00000
     89      62.8574      0.00000
     90      63.6261      0.00000
     91      64.5445      0.00000
     92      65.0265      0.00000
     93      65.2382      0.00000
     94      66.3760      0.00000
     95      67.0861      0.00000
     96      68.3604      0.00000


--------------------------------------------------------------------------------------------------------


 soft charge-density along one line, spin component           1
         0         1         2         3         4         5         6         7         8         9
 total charge-density along one line
 
 soft charge-density along one line, spin component           2
         0         1         2         3         4         5         6         7         8         9
 total charge-density along one line
 
 pseudopotential strength for first ion, spin component:           1
 -2.181  -3.727   0.000  -0.000  -0.000
 -3.727  -6.282   0.000  -0.001  -0.000
  0.000   0.000  -0.381  -0.000  -0.000
 -0.000  -0.001  -0.000  -0.381  -0.000
 -0.000  -0.000  -0.000  -0.000  -0.380
 pseudopotential strength for first ion, spin component:           2
 -2.181  -3.727   0.000  -0.000  -0.000
 -3.727  -6.282   0.000  -0.001  -0.000
  0.000   0.000  -0.381  -0.000  -0.000
 -0.000  -0.001  -0.000  -0.381  -0.000
 -0.000  -0.000  -0.000  -0.000  -0.380
 total augmentation occupancy for first ion, spin component:           1
  1.000   0.000   0.000   0.000   0.000
  0.000   0.000   0.000   0.000   0.000
  0.000   0.000   0.000   0.000   0.000
  0.000   0.000   0.000   0.000   0.000
  0.000   0.000   0.000   0.000   0.000
 total augmentation occupancy for first ion, spin component:           2
  1.000   0.000   0.000   0.000   0.000
  0.000   0.000   0.000   0.000   0.000
  0.000   0.000   0.000   0.000   0.000
  0.000   0.000   0.000   0.000   0.000
  0.000   0.000   0.000   0.000   0.000


------------------------ aborting loop because EDIFF is reached ----------------------------------------


 


 total charge     
 
# of ion       s       p       d       tot
------------------------------------------
    1        0.523   0.013   0.000   0.537
    2        0.523   0.013   0.000   0.537
    3        0.527   0.013   0.000   0.540
    4        0.527   0.013   0.000   0.540
    5        0.515   0.038   0.000   0.553
    6        0.515   0.038   0.000   0.553
    7        0.672   0.768   4.325   5.765
    8        0.672   0.768   4.325   5.765
--------------------------------------------------
tot          4.476   1.664   8.649  14.789
 


 magnetization (x)
 
# of ion       s       p       d       tot
------------------------------------------
    1       -0.000   0.000   0.000   0.000
    2       -0.000   0.000   0.000   0.000
    3        0.000   0.000   0.000   0.001
    4        0.000   0.000   0.000   0.001
    5       -0.000   0.000   0.000  -0.000
    6       -0.000   0.000   0.000  -0.000
    7        0.000   0.001   0.024   0.025
    8        0.000   0.001   0.024   0.025
--------------------------------------------------
tot          0.000   0.002   0.048   0.050
 
    CHARGE:  cpu time    0.1168: real time    0.4405
    FORLOC:  cpu time    0.0007: real time    0.0017
    FORHF :  cpu time  875.4646: real time  875.5613
    FORNL :  cpu time    0.9817: real time    1.1765
    FORCOR:  cpu time    0.1876: real time    0.2817
    FORHAR:  cpu time    0.0020: real time    0.0035
    OFIELD:  cpu time    0.0006: real time    0.0009

 VOLUME and BASIS-vectors are now :
 -----------------------------------------------------------------------------
  energy-cutoff  :      520.00
  volume of cell :       65.22
      direct lattice vectors                 reciprocal lattice vectors
     0.000000000  3.071257525  0.070744420     0.000000000  0.327041241 -0.062589719
     3.057456611  0.000000000  0.000000000     0.327069237  0.000000000  0.000000000
     0.000000000 -1.335119409 -6.976211344     0.000000000  0.003316462 -0.143978991

  length of vectors
     3.072072193  3.057456611  7.102821169     0.332976646  0.327069237  0.144017183


 FORCES acting on ions
    electron-ion (+dipol)            ewald-force                    non-local-force                 convergence-correction
 -----------------------------------------------------------------------------------------------
   -.350E-05 -.226E+01 0.428E+02   -.502E-15 0.247E+01 -.444E+02   0.000E+00 -.202E+00 0.151E+01   0.126E-05 -.250E-01 0.118E+00
   0.322E-05 0.226E+01 -.428E+02   -.714E-15 -.247E+01 0.444E+02   0.000E+00 0.202E+00 -.151E+01   -.121E-05 0.250E-01 -.118E+00
   -.258E-05 0.127E+01 -.428E+02   -.371E-15 -.138E+01 0.444E+02   0.000E+00 0.957E-01 -.152E+01   0.136E-05 0.364E-02 -.129E+00
   0.278E-05 -.127E+01 0.428E+02   0.543E-15 0.138E+01 -.444E+02   0.000E+00 -.957E-01 0.152E+01   -.134E-05 -.364E-02 0.129E+00
   0.120E-05 -.305E+01 -.295E+02   0.354E-16 0.366E+01 0.310E+02   -.434E-18 -.571E+00 -.149E+01   -.143E-05 -.512E-01 -.515E-01
   -.104E-05 0.305E+01 0.295E+02   0.470E-15 -.366E+01 -.310E+02   0.434E-18 0.571E+00 0.149E+01   0.138E-05 0.512E-01 0.515E-01
   0.208E-04 -.759E+01 0.130E+03   -.227E-14 0.853E+01 -.128E+03   -.694E-17 -.921E+00 -.534E+00   -.827E-05 -.795E-01 -.968E-01
   -.211E-04 0.759E+01 -.130E+03   0.117E-14 -.853E+01 0.128E+03   0.694E-17 0.921E+00 0.534E+00   0.837E-05 0.795E-01 0.968E-01
 -----------------------------------------------------------------------------------------------
   -.220E-06 0.236E-05 -.102E-05   -.163E-14 0.355E-14 0.000E+00   0.000E+00 0.111E-15 0.000E+00   0.123E-06 -.361E-06 0.140E-05
 
 
 POSITION                                       TOTAL-FORCE (eV/Angst)
 -----------------------------------------------------------------------------------
      2.29309      0.30873     -5.53094         0.000000     -0.015334      0.108693
      0.76436      1.42741     -1.37453         0.000000      0.015334     -0.108693
      2.29309      0.02097     -1.41660         0.000000     -0.015239     -0.097768
      0.76436      1.71517     -5.48887         0.000000      0.015239      0.097768
      0.76436     -0.25010     -2.58881        -0.000000     -0.033114     -0.161261
      2.29309      1.98624     -4.31665         0.000000      0.033114      0.161261
      0.76436      0.16751     -4.35502         0.000000     -0.080244      0.577710
      2.29309      1.56863     -2.55045         0.000000      0.080244     -0.577710
 -----------------------------------------------------------------------------------
    total drift:                               -0.000000      0.000002      0.000000


--------------------------------------------------------------------------------------------------------



  FREE ENERGIE OF THE ION-ELECTRON SYSTEM (eV)
  ---------------------------------------------------
  free  energy   TOTEN  =       -46.78176033 eV

  energy  without entropy=      -46.78049495  energy(sigma->0) =      -46.78112764
 


--------------------------------------------------------------------------------------------------------


    POTLOK:  cpu time    0.1508: real time    0.1594


--------------------------------------------------------------------------------------------------------


     LOOP+:  cpu time43664.9754: real time43675.7113
    4ORBIT:  cpu time    0.0000: real time    0.0000
 


 total charge     
 
# of ion       s       p       d       tot
------------------------------------------
    1        0.523   0.013   0.000   0.537
    2        0.523   0.013   0.000   0.537
    3        0.527   0.013   0.000   0.540
    4        0.527   0.013   0.000   0.540
    5        0.515   0.038   0.000   0.553
    6        0.515   0.038   0.000   0.553
    7        0.672   0.768   4.325   5.765
    8        0.672   0.768   4.325   5.765
--------------------------------------------------
tot          4.476   1.664   8.649  14.789
 


 magnetization (x)
 
# of ion       s       p       d       tot
------------------------------------------
    1       -0.000   0.000   0.000   0.000
    2       -0.000   0.000   0.000   0.000
    3        0.000   0.000   0.000   0.001
    4        0.000   0.000   0.000   0.001
    5       -0.000   0.000   0.000  -0.000
    6       -0.000   0.000   0.000  -0.000
    7        0.000   0.001   0.024   0.025
    8        0.000   0.001   0.024   0.025
--------------------------------------------------
tot          0.000   0.002   0.048   0.050
 

 total amount of memory used by VASP MPI-rank0   155204. kBytes
=======================================================================

   base      :      30000. kBytes
   nonl-proj :      22601. kBytes
   fftplans  :        967. kBytes
   grid      :        734. kBytes
   one-center:         31. kBytes
   HF        :         23. kBytes
   nonlr-proj:       1833. kBytes
   wavefun   :      99015. kBytes
 
  
  
 General timing and accounting informations for this job:
 ========================================================
  
                  Total CPU time used (sec):    43725.027
                            User time (sec):    43720.035
                          System time (sec):        4.991
                         Elapsed time (sec):    43737.998
  
                   Maximum memory used (kb):      579820.
                   Average memory used (kb):           0.
  
                          Minor page faults:      2431921
                          Major page faults:         4493
                 Voluntary context switches:         7212
