 vasp.5.4.1 24Jun15 (build Nov 23 2015 09:58:10) complex                        
  
 executed on             LinuxIFC date 2020.07.05  12:03:47
 running on   24 total cores
 distrk:  each k-point on   24 cores,    1 groups
 distr:  one band on NCORES_PER_BAND=   4 cores,    6 groups


--------------------------------------------------------------------------------------------------------


 INCAR:
 POTCAR:    PAW_PBE H 15Jun2001                   
 POTCAR:    PAW_PBE Sr_sv 07Sep2000               
 POTCAR:    PAW_PBE H 15Jun2001                   
   VRHFIN =H: ultrasoft test                                                    
   LEXCH  = PE                                                                  
   EATOM  =    12.4884 eV,    0.9179 Ry                                         
                                                                                
   TITEL  = PAW_PBE H 15Jun2001                                                 
   LULTRA =        F    use ultrasoft PP ?                                      
   IUNSCR =        0    unscreen: 0-lin 1-nonlin 2-no                           
   RPACOR =    0.000    partial core radius                                     
   POMASS =    1.000; ZVAL   =    1.000    mass and valenz                      
   RCORE  =    1.100    outmost cutoff radius                                   
   RWIGS  =    0.700; RWIGS  =    0.370    wigner-seitz radius (au A)           
   ENMAX  =  250.000; ENMIN  =  200.000 eV                                      
   RCLOC  =    0.701    cutoff for local pot                                    
   LCOR   =        T    correct aug charges                                     
   LPAW   =        T    paw PP                                                  
   EAUG   =  400.000                                                            
   RMAX   =    1.123    core radius for proj-oper                               
   RAUG   =    1.200    factor for augmentation sphere                          
   RDEP   =    1.112    radius for radial grids                                 
   RDEPT  =    0.926    core radius for aug-charge                              
                                                                                
   Atomic configuration                                                         
    2 entries                                                                   
     n  l   j            E        occ.                                          
     1  0  0.50        -6.4927   1.0000                                         
     2  1  0.50        -3.4015   0.0000                                         
   Description                                                                  
     l       E           TYP  RCUT    TYP  RCUT                                 
     0     -6.4927494     23  1.100                                             
     0      6.8029130     23  1.100                                             
     1     -4.0817478     23  1.100                                             
  local pseudopotential read in
  atomic valenz-charges read in
  non local Contribution for L=           0  read in
    real space projection operators read in
  non local Contribution for L=           0  read in
    real space projection operators read in
  non local Contribution for L=           1  read in
    real space projection operators read in
    PAW grid and wavefunctions read in
 
   number of l-projection  operators is LMAX  =           3
   number of lm-projection operators is LMMAX =           5
 
 POTCAR:    PAW_PBE Sr_sv 07Sep2000               
   VRHFIN =Sr: 4s4p5s                                                           
   LEXCH  = PE                                                                  
   EATOM  =   843.0319 eV,   61.9611 Ry                                         
                                                                                
   TITEL  = PAW_PBE Sr_sv 07Sep2000                                             
   LULTRA =        F    use ultrasoft PP ?                                      
   IUNSCR =        1    unscreen: 0-lin 1-nonlin 2-no                           
   RPACOR =    2.200    partial core radius                                     
   POMASS =   87.620; ZVAL   =   10.000    mass and valenz                      
   RCORE  =    2.500    outmost cutoff radius                                   
   RWIGS  =    4.040; RWIGS  =    2.138    wigner-seitz radius (au A)           
   ENMAX  =  229.353; ENMIN  =  172.014 eV                                      
   RCLOC  =    2.201    cutoff for local pot                                    
   LCOR   =        T    correct aug charges                                     
   LPAW   =        T    paw PP                                                  
   EAUG   =  366.804                                                            
   DEXC   =    0.000                                                            
   RMAX   =    2.547    core radius for proj-oper                               
   RAUG   =    1.300    factor for augmentation sphere                          
   RDEP   =    2.562    radius for radial grids                                 
   RDEPT  =    2.128    core radius for aug-charge                              
                                                                                
   Atomic configuration                                                         
   10 entries                                                                   
     n  l   j            E        occ.                                          
     1  0  0.50    -15934.8930   2.0000                                         
     2  0  0.50     -2157.6250   2.0000                                         
     2  1  1.50     -1917.0034   6.0000                                         
     3  0  0.50      -333.7288   2.0000                                         
     3  1  1.50      -256.0992   6.0000                                         
     3  2  2.50      -127.9971  10.0000                                         
     4  0  0.50       -40.8953   2.0000                                         
     5  0  0.50        -3.5257   1.9990                                         
     4  1  1.50       -22.8179   6.0000                                         
     4  2  1.50        -1.2815   0.0010                                         
   Description                                                                  
     l       E           TYP  RCUT    TYP  RCUT                                 
     0    -40.8953213     23  2.480                                             
     0     -3.5257161     23  2.480                                             
     1    -22.8178632     23  2.500                                             
     1    -24.1784458     23  2.500                                             
     2     -1.2814598     23  2.500                                             
     2      0.2279365     23  2.500                                             
  local pseudopotential read in
  partial core-charges read in
  partial kinetic energy density read in
  atomic valenz-charges read in
  non local Contribution for L=           0  read in
    real space projection operators read in
  non local Contribution for L=           0  read in
    real space projection operators read in
  non local Contribution for L=           1  read in
    real space projection operators read in
  non local Contribution for L=           1  read in
    real space projection operators read in
  non local Contribution for L=           2  read in
    real space projection operators read in
  non local Contribution for L=           2  read in
    real space projection operators read in
    PAW grid and wavefunctions read in
 
   number of l-projection  operators is LMAX  =           6
   number of lm-projection operators is LMMAX =          18
 
  PAW_PBE H 15Jun2001                   :
 energy of atom  1       EATOM=  -12.4884
 kinetic energy error for atom=    0.0014 (will be added to EATOM!!)
  PAW_PBE Sr_sv 07Sep2000               :
 energy of atom  2       EATOM= -843.0319
 kinetic energy error for atom=    0.0010 (will be added to EATOM!!)
 
 
 POSCAR: Sr2 H4                                  
  positions in direct lattice
  velocities in cartesian coordinates
 exchange correlation table for  LEXCH =        8
   RHO(1)=    0.500       N(1)  =     2000
   RHO(2)=  100.500       N(2)  =     4000
 


--------------------------------------------------------------------------------------------------------


 ion  position               nearest neighbor table
   1  0.667  0.833  0.250-   5 2.38   5 2.38   5 2.38   6 2.86   6 2.86
   2  0.333  0.167  0.750-   6 2.38   6 2.38   6 2.38   5 2.86   5 2.86
   3  0.000  0.500  0.000-   6 2.77   5 2.77   6 2.77   5 2.77   6 2.78   5 2.78
   4  0.000  0.500  0.500-   6 2.77   5 2.77   6 2.77   5 2.77   6 2.78   5 2.78
   5  0.333  0.167  0.250-   1 2.38   1 2.38   1 2.38   4 2.77   3 2.77   4 2.77   3 2.77   4 2.78
                             3 2.78   2 2.86   2 2.86   6 3.72   6 3.72   6 3.72   6 3.72   6 3.72
   6  0.667  0.833  0.750-   2 2.38   2 2.38   2 2.38   3 2.77   4 2.77   4 2.77   3 2.77   3 2.78
                             4 2.78   1 2.86   1 2.86   5 3.72   5 3.72   5 3.72   5 3.72   5 3.72
 
  LATTYP: Found a base centered orthorhombic cell.
 ALAT       =     4.1186211356
 B/A-ratio  =     1.7320993179
 C/A-ratio  =     1.3891746611
  
  Lattice vectors:
  
 A1 = (   3.5669304299,   0.0000000000,   2.0593105678)
 A2 = (  -3.5669304299,   0.0000000000,   2.0593105678)
 A3 = (   0.0000000000,  -5.7214841201,   0.0000000000)


Analysis of symmetry for initial positions (statically):
=====================================================================
 Subroutine PRICEL returns:
 Original cell was already a primitive cell.
 

 Routine SETGRP: Setting up the symmetry group for a 
 base centered orthorhombic supercell.


 Subroutine GETGRP returns: Found  8 space group operations
 (whereof  2 operations were pure point group operations)
 out of a pool of  8 trial point group operations.


The static configuration has the point symmetry S_2 .
 The point group associated with its full space group is D_2h.


Analysis of symmetry for dynamics (positions and initial velocities):
=====================================================================
 Subroutine PRICEL returns:
 Original cell was already a primitive cell.
 

 Routine SETGRP: Setting up the symmetry group for a 
 base centered orthorhombic supercell.


 Subroutine GETGRP returns: Found  8 space group operations
 (whereof  2 operations were pure point group operations)
 out of a pool of  8 trial point group operations.


The dynamic configuration has the point symmetry S_2 .
 The point group associated with its full space group is D_2h.
 
 
 KPOINTS: K-Mesh                                  

Automatic generation of k-mesh.
Space group operators:
 irot       det(A)        alpha          n_x          n_y          n_z        tau_x        tau_y        tau_z
    1     1.000000     0.000000     1.000000     0.000000     0.000000     0.000000     0.000000     0.000000
    2    -1.000000     0.000000     1.000000     0.000000     0.000000     0.000000     0.000000     0.000000
    3     1.000000   180.000000     0.000000     1.000000     0.000000     0.000000     0.000000    -0.500000
    4    -1.000000   180.000000     0.000000     1.000000     0.000000     0.000000     0.000000    -0.500000
    5     1.000000   180.000000     1.000000     0.000000     0.000000     0.500000     0.000000    -0.500000
    6    -1.000000   180.000000     1.000000     0.000000     0.000000     0.500000     0.000000    -0.500000
    7     1.000000   180.000000     0.000000     0.000000     1.000000     0.500000     0.000000     0.000000
    8    -1.000000   180.000000     0.000000     0.000000     1.000000     0.500000     0.000000     0.000000
 
 Subroutine IBZKPT returns following result:
 ===========================================
 
 Found    285 irreducible k-points:
 
 Following reciprocal coordinates:
            Coordinates               Weight
  0.000000  0.000000  0.000000      1.000000
  0.071429  0.000000  0.000000      4.000000
  0.142857  0.000000  0.000000      4.000000
  0.214286  0.000000  0.000000      4.000000
  0.285714  0.000000  0.000000      4.000000
  0.357143  0.000000  0.000000      4.000000
  0.428571  0.000000  0.000000      4.000000
  0.500000  0.000000  0.000000      2.000000
  0.000000  0.071429  0.000000      2.000000
  0.071429  0.071429  0.000000      4.000000
  0.142857  0.071429  0.000000      4.000000
  0.214286  0.071429  0.000000      4.000000
  0.285714  0.071429  0.000000      4.000000
  0.357143  0.071429  0.000000      4.000000
  0.428571  0.071429  0.000000      4.000000
  0.500000  0.071429  0.000000      4.000000
 -0.428571  0.071429  0.000000      4.000000
 -0.357143  0.071429  0.000000      4.000000
 -0.285714  0.071429  0.000000      4.000000
 -0.214286  0.071429  0.000000      4.000000
 -0.142857  0.071429  0.000000      2.000000
  0.000000  0.142857  0.000000      2.000000
  0.071429  0.142857  0.000000      4.000000
  0.142857  0.142857  0.000000      4.000000
  0.214286  0.142857  0.000000      4.000000
  0.285714  0.142857  0.000000      4.000000
  0.357143  0.142857  0.000000      4.000000
  0.428571  0.142857  0.000000      4.000000
  0.500000  0.142857  0.000000      4.000000
 -0.428571  0.142857  0.000000      4.000000
 -0.357143  0.142857  0.000000      4.000000
 -0.285714  0.142857  0.000000      2.000000
  0.000000  0.214286  0.000000      2.000000
  0.071429  0.214286  0.000000      4.000000
  0.142857  0.214286  0.000000      4.000000
  0.214286  0.214286  0.000000      4.000000
  0.285714  0.214286  0.000000      4.000000
  0.357143  0.214286  0.000000      4.000000
  0.428571  0.214286  0.000000      4.000000
  0.500000  0.214286  0.000000      4.000000
 -0.428571  0.214286  0.000000      2.000000
  0.000000  0.285714  0.000000      2.000000
  0.071429  0.285714  0.000000      4.000000
  0.142857  0.285714  0.000000      4.000000
  0.214286  0.285714  0.000000      4.000000
  0.285714  0.285714  0.000000      4.000000
  0.357143  0.285714  0.000000      4.000000
  0.428571  0.285714  0.000000      2.000000
  0.000000  0.357143  0.000000      2.000000
  0.071429  0.357143  0.000000      4.000000
  0.142857  0.357143  0.000000      4.000000
  0.214286  0.357143  0.000000      4.000000
  0.285714  0.357143  0.000000      2.000000
  0.000000  0.428571  0.000000      2.000000
  0.071429  0.428571  0.000000      4.000000
  0.142857  0.428571  0.000000      2.000000
  0.000000  0.500000  0.000000      1.000000
  0.000000  0.000000  0.111111      2.000000
  0.071429  0.000000  0.111111      8.000000
  0.142857  0.000000  0.111111      8.000000
  0.214286  0.000000  0.111111      8.000000
  0.285714  0.000000  0.111111      8.000000
  0.357143  0.000000  0.111111      8.000000
  0.428571  0.000000  0.111111      8.000000
  0.500000  0.000000  0.111111      4.000000
  0.000000  0.071429  0.111111      4.000000
  0.071429  0.071429  0.111111      8.000000
  0.142857  0.071429  0.111111      8.000000
  0.214286  0.071429  0.111111      8.000000
  0.285714  0.071429  0.111111      8.000000
  0.357143  0.071429  0.111111      8.000000
  0.428571  0.071429  0.111111      8.000000
  0.500000  0.071429  0.111111      8.000000
 -0.428571  0.071429  0.111111      8.000000
 -0.357143  0.071429  0.111111      8.000000
 -0.285714  0.071429  0.111111      8.000000
 -0.214286  0.071429  0.111111      8.000000
 -0.142857  0.071429  0.111111      4.000000
  0.000000  0.142857  0.111111      4.000000
  0.071429  0.142857  0.111111      8.000000
  0.142857  0.142857  0.111111      8.000000
  0.214286  0.142857  0.111111      8.000000
  0.285714  0.142857  0.111111      8.000000
  0.357143  0.142857  0.111111      8.000000
  0.428571  0.142857  0.111111      8.000000
  0.500000  0.142857  0.111111      8.000000
 -0.428571  0.142857  0.111111      8.000000
 -0.357143  0.142857  0.111111      8.000000
 -0.285714  0.142857  0.111111      4.000000
  0.000000  0.214286  0.111111      4.000000
  0.071429  0.214286  0.111111      8.000000
  0.142857  0.214286  0.111111      8.000000
  0.214286  0.214286  0.111111      8.000000
  0.285714  0.214286  0.111111      8.000000
  0.357143  0.214286  0.111111      8.000000
  0.428571  0.214286  0.111111      8.000000
  0.500000  0.214286  0.111111      8.000000
 -0.428571  0.214286  0.111111      4.000000
  0.000000  0.285714  0.111111      4.000000
  0.071429  0.285714  0.111111      8.000000
  0.142857  0.285714  0.111111      8.000000
  0.214286  0.285714  0.111111      8.000000
  0.285714  0.285714  0.111111      8.000000
  0.357143  0.285714  0.111111      8.000000
  0.428571  0.285714  0.111111      4.000000
  0.000000  0.357143  0.111111      4.000000
  0.071429  0.357143  0.111111      8.000000
  0.142857  0.357143  0.111111      8.000000
  0.214286  0.357143  0.111111      8.000000
  0.285714  0.357143  0.111111      4.000000
  0.000000  0.428571  0.111111      4.000000
  0.071429  0.428571  0.111111      8.000000
  0.142857  0.428571  0.111111      4.000000
  0.000000  0.500000  0.111111      2.000000
  0.000000  0.000000  0.222222      2.000000
  0.071429  0.000000  0.222222      8.000000
  0.142857  0.000000  0.222222      8.000000
  0.214286  0.000000  0.222222      8.000000
  0.285714  0.000000  0.222222      8.000000
  0.357143  0.000000  0.222222      8.000000
  0.428571  0.000000  0.222222      8.000000
  0.500000  0.000000  0.222222      4.000000
  0.000000  0.071429  0.222222      4.000000
  0.071429  0.071429  0.222222      8.000000
  0.142857  0.071429  0.222222      8.000000
  0.214286  0.071429  0.222222      8.000000
  0.285714  0.071429  0.222222      8.000000
  0.357143  0.071429  0.222222      8.000000
  0.428571  0.071429  0.222222      8.000000
  0.500000  0.071429  0.222222      8.000000
 -0.428571  0.071429  0.222222      8.000000
 -0.357143  0.071429  0.222222      8.000000
 -0.285714  0.071429  0.222222      8.000000
 -0.214286  0.071429  0.222222      8.000000
 -0.142857  0.071429  0.222222      4.000000
  0.000000  0.142857  0.222222      4.000000
  0.071429  0.142857  0.222222      8.000000
  0.142857  0.142857  0.222222      8.000000
  0.214286  0.142857  0.222222      8.000000
  0.285714  0.142857  0.222222      8.000000
  0.357143  0.142857  0.222222      8.000000
  0.428571  0.142857  0.222222      8.000000
  0.500000  0.142857  0.222222      8.000000
 -0.428571  0.142857  0.222222      8.000000
 -0.357143  0.142857  0.222222      8.000000
 -0.285714  0.142857  0.222222      4.000000
  0.000000  0.214286  0.222222      4.000000
  0.071429  0.214286  0.222222      8.000000
  0.142857  0.214286  0.222222      8.000000
  0.214286  0.214286  0.222222      8.000000
  0.285714  0.214286  0.222222      8.000000
  0.357143  0.214286  0.222222      8.000000
  0.428571  0.214286  0.222222      8.000000
  0.500000  0.214286  0.222222      8.000000
 -0.428571  0.214286  0.222222      4.000000
  0.000000  0.285714  0.222222      4.000000
  0.071429  0.285714  0.222222      8.000000
  0.142857  0.285714  0.222222      8.000000
  0.214286  0.285714  0.222222      8.000000
  0.285714  0.285714  0.222222      8.000000
  0.357143  0.285714  0.222222      8.000000
  0.428571  0.285714  0.222222      4.000000
  0.000000  0.357143  0.222222      4.000000
  0.071429  0.357143  0.222222      8.000000
  0.142857  0.357143  0.222222      8.000000
  0.214286  0.357143  0.222222      8.000000
  0.285714  0.357143  0.222222      4.000000
  0.000000  0.428571  0.222222      4.000000
  0.071429  0.428571  0.222222      8.000000
  0.142857  0.428571  0.222222      4.000000
  0.000000  0.500000  0.222222      2.000000
  0.000000  0.000000  0.333333      2.000000
  0.071429  0.000000  0.333333      8.000000
  0.142857  0.000000  0.333333      8.000000
  0.214286  0.000000  0.333333      8.000000
  0.285714  0.000000  0.333333      8.000000
  0.357143  0.000000  0.333333      8.000000
  0.428571  0.000000  0.333333      8.000000
  0.500000  0.000000  0.333333      4.000000
  0.000000  0.071429  0.333333      4.000000
  0.071429  0.071429  0.333333      8.000000
  0.142857  0.071429  0.333333      8.000000
  0.214286  0.071429  0.333333      8.000000
  0.285714  0.071429  0.333333      8.000000
  0.357143  0.071429  0.333333      8.000000
  0.428571  0.071429  0.333333      8.000000
  0.500000  0.071429  0.333333      8.000000
 -0.428571  0.071429  0.333333      8.000000
 -0.357143  0.071429  0.333333      8.000000
 -0.285714  0.071429  0.333333      8.000000
 -0.214286  0.071429  0.333333      8.000000
 -0.142857  0.071429  0.333333      4.000000
  0.000000  0.142857  0.333333      4.000000
  0.071429  0.142857  0.333333      8.000000
  0.142857  0.142857  0.333333      8.000000
  0.214286  0.142857  0.333333      8.000000
  0.285714  0.142857  0.333333      8.000000
  0.357143  0.142857  0.333333      8.000000
  0.428571  0.142857  0.333333      8.000000
  0.500000  0.142857  0.333333      8.000000
 -0.428571  0.142857  0.333333      8.000000
 -0.357143  0.142857  0.333333      8.000000
 -0.285714  0.142857  0.333333      4.000000
  0.000000  0.214286  0.333333      4.000000
  0.071429  0.214286  0.333333      8.000000
  0.142857  0.214286  0.333333      8.000000
  0.214286  0.214286  0.333333      8.000000
  0.285714  0.214286  0.333333      8.000000
  0.357143  0.214286  0.333333      8.000000
  0.428571  0.214286  0.333333      8.000000
  0.500000  0.214286  0.333333      8.000000
 -0.428571  0.214286  0.333333      4.000000
  0.000000  0.285714  0.333333      4.000000
  0.071429  0.285714  0.333333      8.000000
  0.142857  0.285714  0.333333      8.000000
  0.214286  0.285714  0.333333      8.000000
  0.285714  0.285714  0.333333      8.000000
  0.357143  0.285714  0.333333      8.000000
  0.428571  0.285714  0.333333      4.000000
  0.000000  0.357143  0.333333      4.000000
  0.071429  0.357143  0.333333      8.000000
  0.142857  0.357143  0.333333      8.000000
  0.214286  0.357143  0.333333      8.000000
  0.285714  0.357143  0.333333      4.000000
  0.000000  0.428571  0.333333      4.000000
  0.071429  0.428571  0.333333      8.000000
  0.142857  0.428571  0.333333      4.000000
  0.000000  0.500000  0.333333      2.000000
  0.000000  0.000000  0.444444      2.000000
  0.071429  0.000000  0.444444      8.000000
  0.142857  0.000000  0.444444      8.000000
  0.214286  0.000000  0.444444      8.000000
  0.285714  0.000000  0.444444      8.000000
  0.357143  0.000000  0.444444      8.000000
  0.428571  0.000000  0.444444      8.000000
  0.500000  0.000000  0.444444      4.000000
  0.000000  0.071429  0.444444      4.000000
  0.071429  0.071429  0.444444      8.000000
  0.142857  0.071429  0.444444      8.000000
  0.214286  0.071429  0.444444      8.000000
  0.285714  0.071429  0.444444      8.000000
  0.357143  0.071429  0.444444      8.000000
  0.428571  0.071429  0.444444      8.000000
  0.500000  0.071429  0.444444      8.000000
 -0.428571  0.071429  0.444444      8.000000
 -0.357143  0.071429  0.444444      8.000000
 -0.285714  0.071429  0.444444      8.000000
 -0.214286  0.071429  0.444444      8.000000
 -0.142857  0.071429  0.444444      4.000000
  0.000000  0.142857  0.444444      4.000000
  0.071429  0.142857  0.444444      8.000000
  0.142857  0.142857  0.444444      8.000000
  0.214286  0.142857  0.444444      8.000000
  0.285714  0.142857  0.444444      8.000000
  0.357143  0.142857  0.444444      8.000000
  0.428571  0.142857  0.444444      8.000000
  0.500000  0.142857  0.444444      8.000000
 -0.428571  0.142857  0.444444      8.000000
 -0.357143  0.142857  0.444444      8.000000
 -0.285714  0.142857  0.444444      4.000000
  0.000000  0.214286  0.444444      4.000000
  0.071429  0.214286  0.444444      8.000000
  0.142857  0.214286  0.444444      8.000000
  0.214286  0.214286  0.444444      8.000000
  0.285714  0.214286  0.444444      8.000000
  0.357143  0.214286  0.444444      8.000000
  0.428571  0.214286  0.444444      8.000000
  0.500000  0.214286  0.444444      8.000000
 -0.428571  0.214286  0.444444      4.000000
  0.000000  0.285714  0.444444      4.000000
  0.071429  0.285714  0.444444      8.000000
  0.142857  0.285714  0.444444      8.000000
  0.214286  0.285714  0.444444      8.000000
  0.285714  0.285714  0.444444      8.000000
  0.357143  0.285714  0.444444      8.000000
  0.428571  0.285714  0.444444      4.000000
  0.000000  0.357143  0.444444      4.000000
  0.071429  0.357143  0.444444      8.000000
  0.142857  0.357143  0.444444      8.000000
  0.214286  0.357143  0.444444      8.000000
  0.285714  0.357143  0.444444      4.000000
  0.000000  0.428571  0.444444      4.000000
  0.071429  0.428571  0.444444      8.000000
  0.142857  0.428571  0.444444      4.000000
  0.000000  0.500000  0.444444      2.000000
 
 Following cartesian coordinates:
            Coordinates               Weight
  0.000000  0.000000  0.000000      1.000000
  0.010013  0.000000  0.017343      4.000000
  0.020025  0.000000  0.034686      4.000000
  0.030038  0.000000  0.052029      4.000000
  0.040050  0.000000  0.069371      4.000000
  0.050063  0.000000  0.086714      4.000000
  0.060076  0.000000  0.104057      4.000000
  0.070088  0.000000  0.121400      2.000000
  0.020025  0.000000  0.000000      2.000000
  0.030038  0.000000  0.017343      4.000000
  0.040050  0.000000  0.034686      4.000000
  0.050063  0.000000  0.052029      4.000000
  0.060076  0.000000  0.069371      4.000000
  0.070088  0.000000  0.086714      4.000000
  0.080101  0.000000  0.104057      4.000000
  0.090113  0.000000  0.121400      4.000000
 -0.040050  0.000000 -0.104057      4.000000
 -0.030038  0.000000 -0.086714      4.000000
 -0.020025  0.000000 -0.069371      4.000000
 -0.010013  0.000000 -0.052029      4.000000
  0.000000  0.000000 -0.034686      2.000000
  0.040050  0.000000  0.000000      2.000000
  0.050063  0.000000  0.017343      4.000000
  0.060076  0.000000  0.034686      4.000000
  0.070088  0.000000  0.052029      4.000000
  0.080101  0.000000  0.069371      4.000000
  0.090113  0.000000  0.086714      4.000000
  0.100126  0.000000  0.104057      4.000000
  0.110139  0.000000  0.121400      4.000000
 -0.020025  0.000000 -0.104057      4.000000
 -0.010013  0.000000 -0.086714      4.000000
  0.000000  0.000000 -0.069371      2.000000
  0.060076  0.000000  0.000000      2.000000
  0.070088  0.000000  0.017343      4.000000
  0.080101  0.000000  0.034686      4.000000
  0.090113  0.000000  0.052029      4.000000
  0.100126  0.000000  0.069371      4.000000
  0.110139  0.000000  0.086714      4.000000
  0.120151  0.000000  0.104057      4.000000
  0.130164  0.000000  0.121400      4.000000
  0.000000  0.000000 -0.104057      2.000000
  0.080101  0.000000  0.000000      2.000000
  0.090113  0.000000  0.017343      4.000000
  0.100126  0.000000  0.034686      4.000000
  0.110139  0.000000  0.052029      4.000000
  0.120151  0.000000  0.069371      4.000000
  0.130164  0.000000  0.086714      4.000000
  0.140177  0.000000  0.104057      2.000000
  0.100126  0.000000  0.000000      2.000000
  0.110139  0.000000  0.017343      4.000000
  0.120151  0.000000  0.034686      4.000000
  0.130164  0.000000  0.052029      4.000000
  0.140177  0.000000  0.069371      2.000000
  0.120151  0.000000  0.000000      2.000000
  0.130164  0.000000  0.017343      4.000000
  0.140177  0.000000  0.034686      2.000000
  0.140177  0.000000  0.000000      1.000000
  0.000000  0.019420  0.000000      2.000000
  0.010013  0.019420  0.017343      8.000000
  0.020025  0.019420  0.034686      8.000000
  0.030038  0.019420  0.052029      8.000000
  0.040050  0.019420  0.069371      8.000000
  0.050063  0.019420  0.086714      8.000000
  0.060076  0.019420  0.104057      8.000000
  0.070088  0.019420  0.121400      4.000000
  0.020025  0.019420  0.000000      4.000000
  0.030038  0.019420  0.017343      8.000000
  0.040050  0.019420  0.034686      8.000000
  0.050063  0.019420  0.052029      8.000000
  0.060076  0.019420  0.069371      8.000000
  0.070088  0.019420  0.086714      8.000000
  0.080101  0.019420  0.104057      8.000000
  0.090113  0.019420  0.121400      8.000000
 -0.040050  0.019420 -0.104057      8.000000
 -0.030038  0.019420 -0.086714      8.000000
 -0.020025  0.019420 -0.069371      8.000000
 -0.010013  0.019420 -0.052029      8.000000
  0.000000  0.019420 -0.034686      4.000000
  0.040050  0.019420  0.000000      4.000000
  0.050063  0.019420  0.017343      8.000000
  0.060076  0.019420  0.034686      8.000000
  0.070088  0.019420  0.052029      8.000000
  0.080101  0.019420  0.069371      8.000000
  0.090113  0.019420  0.086714      8.000000
  0.100126  0.019420  0.104057      8.000000
  0.110139  0.019420  0.121400      8.000000
 -0.020025  0.019420 -0.104057      8.000000
 -0.010013  0.019420 -0.086714      8.000000
  0.000000  0.019420 -0.069371      4.000000
  0.060076  0.019420  0.000000      4.000000
  0.070088  0.019420  0.017343      8.000000
  0.080101  0.019420  0.034686      8.000000
  0.090113  0.019420  0.052029      8.000000
  0.100126  0.019420  0.069371      8.000000
  0.110139  0.019420  0.086714      8.000000
  0.120151  0.019420  0.104057      8.000000
  0.130164  0.019420  0.121400      8.000000
  0.000000  0.019420 -0.104057      4.000000
  0.080101  0.019420  0.000000      4.000000
  0.090113  0.019420  0.017343      8.000000
  0.100126  0.019420  0.034686      8.000000
  0.110139  0.019420  0.052029      8.000000
  0.120151  0.019420  0.069371      8.000000
  0.130164  0.019420  0.086714      8.000000
  0.140177  0.019420  0.104057      4.000000
  0.100126  0.019420  0.000000      4.000000
  0.110139  0.019420  0.017343      8.000000
  0.120151  0.019420  0.034686      8.000000
  0.130164  0.019420  0.052029      8.000000
  0.140177  0.019420  0.069371      4.000000
  0.120151  0.019420  0.000000      4.000000
  0.130164  0.019420  0.017343      8.000000
  0.140177  0.019420  0.034686      4.000000
  0.140177  0.019420  0.000000      2.000000
  0.000000  0.038840  0.000000      2.000000
  0.010013  0.038840  0.017343      8.000000
  0.020025  0.038840  0.034686      8.000000
  0.030038  0.038840  0.052029      8.000000
  0.040050  0.038840  0.069371      8.000000
  0.050063  0.038840  0.086714      8.000000
  0.060076  0.038840  0.104057      8.000000
  0.070088  0.038840  0.121400      4.000000
  0.020025  0.038840  0.000000      4.000000
  0.030038  0.038840  0.017343      8.000000
  0.040050  0.038840  0.034686      8.000000
  0.050063  0.038840  0.052029      8.000000
  0.060076  0.038840  0.069371      8.000000
  0.070088  0.038840  0.086714      8.000000
  0.080101  0.038840  0.104057      8.000000
  0.090113  0.038840  0.121400      8.000000
 -0.040050  0.038840 -0.104057      8.000000
 -0.030038  0.038840 -0.086714      8.000000
 -0.020025  0.038840 -0.069371      8.000000
 -0.010013  0.038840 -0.052029      8.000000
  0.000000  0.038840 -0.034686      4.000000
  0.040050  0.038840  0.000000      4.000000
  0.050063  0.038840  0.017343      8.000000
  0.060076  0.038840  0.034686      8.000000
  0.070088  0.038840  0.052029      8.000000
  0.080101  0.038840  0.069371      8.000000
  0.090113  0.038840  0.086714      8.000000
  0.100126  0.038840  0.104057      8.000000
  0.110139  0.038840  0.121400      8.000000
 -0.020025  0.038840 -0.104057      8.000000
 -0.010013  0.038840 -0.086714      8.000000
  0.000000  0.038840 -0.069371      4.000000
  0.060076  0.038840  0.000000      4.000000
  0.070088  0.038840  0.017343      8.000000
  0.080101  0.038840  0.034686      8.000000
  0.090113  0.038840  0.052029      8.000000
  0.100126  0.038840  0.069371      8.000000
  0.110139  0.038840  0.086714      8.000000
  0.120151  0.038840  0.104057      8.000000
  0.130164  0.038840  0.121400      8.000000
  0.000000  0.038840 -0.104057      4.000000
  0.080101  0.038840  0.000000      4.000000
  0.090113  0.038840  0.017343      8.000000
  0.100126  0.038840  0.034686      8.000000
  0.110139  0.038840  0.052029      8.000000
  0.120151  0.038840  0.069371      8.000000
  0.130164  0.038840  0.086714      8.000000
  0.140177  0.038840  0.104057      4.000000
  0.100126  0.038840  0.000000      4.000000
  0.110139  0.038840  0.017343      8.000000
  0.120151  0.038840  0.034686      8.000000
  0.130164  0.038840  0.052029      8.000000
  0.140177  0.038840  0.069371      4.000000
  0.120151  0.038840  0.000000      4.000000
  0.130164  0.038840  0.017343      8.000000
  0.140177  0.038840  0.034686      4.000000
  0.140177  0.038840  0.000000      2.000000
  0.000000  0.058260  0.000000      2.000000
  0.010013  0.058260  0.017343      8.000000
  0.020025  0.058260  0.034686      8.000000
  0.030038  0.058260  0.052029      8.000000
  0.040050  0.058260  0.069371      8.000000
  0.050063  0.058260  0.086714      8.000000
  0.060076  0.058260  0.104057      8.000000
  0.070088  0.058260  0.121400      4.000000
  0.020025  0.058260  0.000000      4.000000
  0.030038  0.058260  0.017343      8.000000
  0.040050  0.058260  0.034686      8.000000
  0.050063  0.058260  0.052029      8.000000
  0.060076  0.058260  0.069371      8.000000
  0.070088  0.058260  0.086714      8.000000
  0.080101  0.058260  0.104057      8.000000
  0.090113  0.058260  0.121400      8.000000
 -0.040050  0.058260 -0.104057      8.000000
 -0.030038  0.058260 -0.086714      8.000000
 -0.020025  0.058260 -0.069371      8.000000
 -0.010013  0.058260 -0.052029      8.000000
  0.000000  0.058260 -0.034686      4.000000
  0.040050  0.058260  0.000000      4.000000
  0.050063  0.058260  0.017343      8.000000
  0.060076  0.058260  0.034686      8.000000
  0.070088  0.058260  0.052029      8.000000
  0.080101  0.058260  0.069371      8.000000
  0.090113  0.058260  0.086714      8.000000
  0.100126  0.058260  0.104057      8.000000
  0.110139  0.058260  0.121400      8.000000
 -0.020025  0.058260 -0.104057      8.000000
 -0.010013  0.058260 -0.086714      8.000000
  0.000000  0.058260 -0.069371      4.000000
  0.060076  0.058260  0.000000      4.000000
  0.070088  0.058260  0.017343      8.000000
  0.080101  0.058260  0.034686      8.000000
  0.090113  0.058260  0.052029      8.000000
  0.100126  0.058260  0.069371      8.000000
  0.110139  0.058260  0.086714      8.000000
  0.120151  0.058260  0.104057      8.000000
  0.130164  0.058260  0.121400      8.000000
  0.000000  0.058260 -0.104057      4.000000
  0.080101  0.058260  0.000000      4.000000
  0.090113  0.058260  0.017343      8.000000
  0.100126  0.058260  0.034686      8.000000
  0.110139  0.058260  0.052029      8.000000
  0.120151  0.058260  0.069371      8.000000
  0.130164  0.058260  0.086714      8.000000
  0.140177  0.058260  0.104057      4.000000
  0.100126  0.058260  0.000000      4.000000
  0.110139  0.058260  0.017343      8.000000
  0.120151  0.058260  0.034686      8.000000
  0.130164  0.058260  0.052029      8.000000
  0.140177  0.058260  0.069371      4.000000
  0.120151  0.058260  0.000000      4.000000
  0.130164  0.058260  0.017343      8.000000
  0.140177  0.058260  0.034686      4.000000
  0.140177  0.058260  0.000000      2.000000
  0.000000  0.077680  0.000000      2.000000
  0.010013  0.077680  0.017343      8.000000
  0.020025  0.077680  0.034686      8.000000
  0.030038  0.077680  0.052029      8.000000
  0.040050  0.077680  0.069371      8.000000
  0.050063  0.077680  0.086714      8.000000
  0.060076  0.077680  0.104057      8.000000
  0.070088  0.077680  0.121400      4.000000
  0.020025  0.077680  0.000000      4.000000
  0.030038  0.077680  0.017343      8.000000
  0.040050  0.077680  0.034686      8.000000
  0.050063  0.077680  0.052029      8.000000
  0.060076  0.077680  0.069371      8.000000
  0.070088  0.077680  0.086714      8.000000
  0.080101  0.077680  0.104057      8.000000
  0.090113  0.077680  0.121400      8.000000
 -0.040050  0.077680 -0.104057      8.000000
 -0.030038  0.077680 -0.086714      8.000000
 -0.020025  0.077680 -0.069371      8.000000
 -0.010013  0.077680 -0.052029      8.000000
  0.000000  0.077680 -0.034686      4.000000
  0.040050  0.077680  0.000000      4.000000
  0.050063  0.077680  0.017343      8.000000
  0.060076  0.077680  0.034686      8.000000
  0.070088  0.077680  0.052029      8.000000
  0.080101  0.077680  0.069371      8.000000
  0.090113  0.077680  0.086714      8.000000
  0.100126  0.077680  0.104057      8.000000
  0.110139  0.077680  0.121400      8.000000
 -0.020025  0.077680 -0.104057      8.000000
 -0.010013  0.077680 -0.086714      8.000000
  0.000000  0.077680 -0.069371      4.000000
  0.060076  0.077680  0.000000      4.000000
  0.070088  0.077680  0.017343      8.000000
  0.080101  0.077680  0.034686      8.000000
  0.090113  0.077680  0.052029      8.000000
  0.100126  0.077680  0.069371      8.000000
  0.110139  0.077680  0.086714      8.000000
  0.120151  0.077680  0.104057      8.000000
  0.130164  0.077680  0.121400      8.000000
  0.000000  0.077680 -0.104057      4.000000
  0.080101  0.077680  0.000000      4.000000
  0.090113  0.077680  0.017343      8.000000
  0.100126  0.077680  0.034686      8.000000
  0.110139  0.077680  0.052029      8.000000
  0.120151  0.077680  0.069371      8.000000
  0.130164  0.077680  0.086714      8.000000
  0.140177  0.077680  0.104057      4.000000
  0.100126  0.077680  0.000000      4.000000
  0.110139  0.077680  0.017343      8.000000
  0.120151  0.077680  0.034686      8.000000
  0.130164  0.077680  0.052029      8.000000
  0.140177  0.077680  0.069371      4.000000
  0.120151  0.077680  0.000000      4.000000
  0.130164  0.077680  0.017343      8.000000
  0.140177  0.077680  0.034686      4.000000
  0.140177  0.077680  0.000000      2.000000
 


--------------------------------------------------------------------------------------------------------




 Dimension of arrays:
   k-points           NKPTS =    285   k-points in BZ     NKDIM =    285   number of bands    NBANDS=     18
   number of dos      NEDOS =    301   number of ions     NIONS =      6
   non local maximal  LDIM  =      6   non local SUM 2l+1 LMDIM =     18
   total plane-waves  NPLWV =  49152
   max r-space proj   IRMAX =      1   max aug-charges    IRDMAX= 274479
   dimension x,y,z NGX =    32 NGY =   32 NGZ =   48
   dimension x,y,z NGXF=    64 NGYF=   64 NGZF=   96
   support grid    NGXF=   128 NGYF=  128 NGZF=  192
   ions per type =               4   2
 NGX,Y,Z   is equivalent  to a cutoff of  12.92, 12.92, 13.95 a.u.
 NGXF,Y,Z  is equivalent  to a cutoff of  25.83, 25.83, 27.89 a.u.


 I would recommend the setting:
   dimension x,y,z NGX =    31 NGY =   31 NGZ =   43
 SYSTEM =  matgen-scf                              
 POSCAR =  Sr2 H4                                  

 Startparameter for this run:
   NWRITE =      2    write-flag & timer
   PREC   = accura    normal or accurate (medium, high low for compatibility)
   ISTART =      0    job   : 0-new  1-cont  2-samecut
   ICHARG =      2    charge: 1-file 2-atom 10-const
   ISPIN  =      1    spin polarized calculation?
   LNONCOLLINEAR =      F non collinear calculations
   LSORBIT =      F    spin-orbit coupling
   INIWAV =      1    electr: 0-lowe 1-rand  2-diag
   LASPH  =      F    aspherical Exc in radial PAW
   METAGGA=      F    non-selfconsistent MetaGGA calc.

 Electronic Relaxation 1
   ENCUT  =  520.0 eV  38.22 Ry    6.18 a.u.   7.66  7.66 10.64*2*pi/ulx,y,z
   ENINI  =  520.0     initial cutoff
   ENAUG  =  400.0 eV  augmentation charge cutoff
   NELM   =    140;   NELMIN=  6; NELMDL= -5     # of ELM steps 
   EDIFF  = 0.1E-03   stopping-criterion for ELM
   LREAL  =      F    real-space projection
   NLSPLINE    = F    spline interpolate recip. space projectors
   LCOMPAT=      F    compatible to vasp.4.4
   GGA_COMPAT  = T    GGA compatible to vasp.4.4-vasp.4.6
   LMAXPAW     = -100 max onsite density
   LMAXMIX     =    2 max onsite mixed and CHGCAR
   VOSKOWN=      0    Vosko Wilk Nusair interpolation
   ROPT   =    0.00000   0.00000
 Ionic relaxation
   EDIFFG = -.1E-01   stopping-criterion for IOM
   NSW    =      0    number of steps for IOM
   NBLOCK =      1;   KBLOCK =      1    inner block; outer block 
   IBRION =     -1    ionic relax: 0-MD 1-quasi-New 2-CG
   NFREE  =      0    steps in history (QN), initial steepest desc. (CG)
   ISIF   =      2    stress and relaxation
   IWAVPR =     10    prediction:  0-non 1-charg 2-wave 3-comb
   ISYM   =      2    0-nonsym 1-usesym 2-fastsym
   LCORR  =      T    Harris-Foulkes like correction to forces

   POTIM  = 0.0500    time-step for ionic-motion
   TEIN   =    0.0    initial temperature
   TEBEG  =    0.0;   TEEND  =   0.0 temperature during run
   SMASS  =  -3.00    Nose mass-parameter (am)
   estimated Nose-frequenzy (Omega)   =  0.10E-29 period in steps =****** mass=  -0.388E-27a.u.
   SCALEE = 1.0000    scale energy and forces
   NPACO  =    256;   APACO  = 16.0  distance and # of slots for P.C.
   PSTRESS=    0.0 pullay stress

  Mass of Ions in am
   POMASS =   1.00 87.62
  Ionic Valenz
   ZVAL   =   1.00 10.00
  Atomic Wigner-Seitz radii
   RWIGS  =  -1.00 -1.00
  virtual crystal weights 
   VCA    =   1.00  1.00
   NELECT =      24.0000    total number of electrons
   NUPDOWN=      -1.0000    fix difference up-down

 DOS related values:
   EMIN   =  10.00;   EMAX   =-10.00  energy-range for DOS
   EFERMI =   0.00
   ISMEAR =     0;   SIGMA  =   0.05  broadening in eV -4-tet -1-fermi 0-gaus

 Electronic relaxation 2 (details)
   IALGO  =     38    algorithm
   LDIAG  =      T    sub-space diagonalisation (order eigenvalues)
   LSUBROT=      F    optimize rotation matrix (better conditioning)
   TURBO    =      0    0=normal 1=particle mesh
   IRESTART =      0    0=no restart 2=restart with 2 vectors
   NREBOOT  =      0    no. of reboots
   NMIN     =      0    reboot dimension
   EREF     =   0.00    reference energy to select bands
   IMIX   =      4    mixing-type and parameters
     AMIX     =   0.10;   BMIX     =  1.20
     AMIX_MAG =   0.40;   BMIX_MAG =  1.20
     AMIN     =   0.10
     WC   =   100.;   INIMIX=   1;  MIXPRE=   1;  MAXMIX= -45

 Intra band minimization:
   WEIMIN = 0.0000     energy-eigenvalue tresh-hold
   EBREAK =  0.14E-05  absolut break condition
   DEPER  =   0.30     relativ break condition  

   TIME   =   0.40     timestep for ELM

  volume/ion in A,a.u.               =      14.01        94.54
  Fermi-wavevector in a.u.,A,eV,Ry     =   1.078020  2.037163 15.811702  1.162127
  Thomas-Fermi vector in A             =   2.213948
 
 Write flags
   LWAVE  =      F    write WAVECAR
   LCHARG =      T    write CHGCAR
   LVTOT  =      F    write LOCPOT, total local potential
   LVHAR  =      F    write LOCPOT, Hartree potential only
   LELF   =      F    write electronic localiz. function (ELF)
   LORBIT =     11    0 simple, 1 ext, 2 COOP (PROOUT)


 Dipole corrections
   LMONO  =      F    monopole corrections only (constant potential shift)
   LDIPOL =      F    correct potential (dipole corrections)
   IDIPOL =      0    1-x, 2-y, 3-z, 4-all directions 
   EPSILON=  1.0000000 bulk dielectric constant

 Exchange correlation treatment:
   GGA     =    --    GGA type
   LEXCH   =     8    internal setting for exchange type
   VOSKOWN=      0    Vosko Wilk Nusair interpolation
   LHFCALC =     F    Hartree Fock is set to
   LHFONE  =     F    Hartree Fock one center treatment
   AEXX    =    0.0000 exact exchange contribution

 Linear response parameters
   LEPSILON=     F    determine dielectric tensor
   LRPA    =     F    only Hartree local field effects (RPA)
   LNABLA  =     F    use nabla operator in PAW spheres
   LVEL    =     F    velocity operator in full k-point grid
   LINTERFAST=   F  fast interpolation
   KINTER  =     0    interpolate to denser k-point grid
   CSHIFT  =0.1000    complex shift for real part using Kramers Kronig
   OMEGAMAX=  -1.0    maximum frequency
   DEG_THRESHOLD= 0.2000000E-02 threshold for treating states as degnerate
   RTIME   =    0.100 relaxation time in fs

 Orbital magnetization related:
   ORBITALMAG=     F  switch on orbital magnetization
   LCHIMAG   =     F  perturbation theory with respect to B field
   DQ        =  0.001000  dq finite difference perturbation B field



--------------------------------------------------------------------------------------------------------


 Static calculation
 charge density and potential will be updated during run
 non-spin polarized calculation
 Variant of blocked Davidson
 Davidson routine will perform the subspace rotation
 perform sub-space diagonalisation
    after iterative eigenvector-optimisation
 modified Broyden-mixing scheme, WC =      100.0
 initial mixing is a Kerker type mixing with AMIX =  0.1000 and BMIX =      1.2000
 Hartree-type preconditioning will be used
 using additional bands            6
 reciprocal scheme for non local part
 use partial core corrections
 calculate Harris-corrections to forces 
   (improved forces if not selfconsistent)
 use gradient corrections 
 use of overlap-Matrix (Vanderbilt PP)
 Gauss-broadening in eV      SIGMA  =   0.05


--------------------------------------------------------------------------------------------------------


  energy-cutoff  :      520.00
  volume of cell :       84.05
      direct lattice vectors                 reciprocal lattice vectors
     0.000000000  0.000000000  4.118621136     0.140176550  0.000000000  0.242799706
     3.566930430  0.000000000 -2.059310568     0.280353099  0.000000000  0.000000000
     0.000000000  5.721484120  0.000000000     0.000000000  0.174779826  0.000000000

  length of vectors
     4.118621136  4.118707650  5.721484120     0.280358988  0.280353099  0.174779826


 
 k-points in units of 2pi/SCALE and weight: K-Mesh                                  
   0.00000000  0.00000000  0.00000000       0.001
   0.01001261  0.00000000  0.01734284       0.002
   0.02002522  0.00000000  0.03468567       0.002
   0.03003783  0.00000000  0.05202851       0.002
   0.04005044  0.00000000  0.06937134       0.002
   0.05006305  0.00000000  0.08671418       0.002
   0.06007566  0.00000000  0.10405702       0.002
   0.07008827  0.00000000  0.12139985       0.001
   0.02002522  0.00000000  0.00000000       0.001
   0.03003783  0.00000000  0.01734284       0.002
   0.04005044  0.00000000  0.03468567       0.002
   0.05006305  0.00000000  0.05202851       0.002
   0.06007566  0.00000000  0.06937134       0.002
   0.07008827  0.00000000  0.08671418       0.002
   0.08010089  0.00000000  0.10405702       0.002
   0.09011350  0.00000000  0.12139985       0.002
  -0.04005044  0.00000000 -0.10405702       0.002
  -0.03003783  0.00000000 -0.08671418       0.002
  -0.02002522  0.00000000 -0.06937134       0.002
  -0.01001261  0.00000000 -0.05202851       0.002
   0.00000000  0.00000000 -0.03468567       0.001
   0.04005044  0.00000000  0.00000000       0.001
   0.05006305  0.00000000  0.01734284       0.002
   0.06007566  0.00000000  0.03468567       0.002
   0.07008827  0.00000000  0.05202851       0.002
   0.08010089  0.00000000  0.06937134       0.002
   0.09011350  0.00000000  0.08671418       0.002
   0.10012611  0.00000000  0.10405702       0.002
   0.11013872  0.00000000  0.12139985       0.002
  -0.02002522  0.00000000 -0.10405702       0.002
  -0.01001261  0.00000000 -0.08671418       0.002
   0.00000000  0.00000000 -0.06937134       0.001
   0.06007566  0.00000000  0.00000000       0.001
   0.07008827  0.00000000  0.01734284       0.002
   0.08010089  0.00000000  0.03468567       0.002
   0.09011350  0.00000000  0.05202851       0.002
   0.10012611  0.00000000  0.06937134       0.002
   0.11013872  0.00000000  0.08671418       0.002
   0.12015133  0.00000000  0.10405702       0.002
   0.13016394  0.00000000  0.12139985       0.002
   0.00000000  0.00000000 -0.10405702       0.001
   0.08010089  0.00000000  0.00000000       0.001
   0.09011350  0.00000000  0.01734284       0.002
   0.10012611  0.00000000  0.03468567       0.002
   0.11013872  0.00000000  0.05202851       0.002
   0.12015133  0.00000000  0.06937134       0.002
   0.13016394  0.00000000  0.08671418       0.002
   0.14017655  0.00000000  0.10405702       0.001
   0.10012611  0.00000000  0.00000000       0.001
   0.11013872  0.00000000  0.01734284       0.002
   0.12015133  0.00000000  0.03468567       0.002
   0.13016394  0.00000000  0.05202851       0.002
   0.14017655  0.00000000  0.06937134       0.001
   0.12015133  0.00000000  0.00000000       0.001
   0.13016394  0.00000000  0.01734284       0.002
   0.14017655  0.00000000  0.03468567       0.001
   0.14017655  0.00000000  0.00000000       0.001
   0.00000000  0.01941998  0.00000000       0.001
   0.01001261  0.01941998  0.01734284       0.005
   0.02002522  0.01941998  0.03468567       0.005
   0.03003783  0.01941998  0.05202851       0.005
   0.04005044  0.01941998  0.06937134       0.005
   0.05006305  0.01941998  0.08671418       0.005
   0.06007566  0.01941998  0.10405702       0.005
   0.07008827  0.01941998  0.12139985       0.002
   0.02002522  0.01941998  0.00000000       0.002
   0.03003783  0.01941998  0.01734284       0.005
   0.04005044  0.01941998  0.03468567       0.005
   0.05006305  0.01941998  0.05202851       0.005
   0.06007566  0.01941998  0.06937134       0.005
   0.07008827  0.01941998  0.08671418       0.005
   0.08010089  0.01941998  0.10405702       0.005
   0.09011350  0.01941998  0.12139985       0.005
  -0.04005044  0.01941998 -0.10405702       0.005
  -0.03003783  0.01941998 -0.08671418       0.005
  -0.02002522  0.01941998 -0.06937134       0.005
  -0.01001261  0.01941998 -0.05202851       0.005
   0.00000000  0.01941998 -0.03468567       0.002
   0.04005044  0.01941998  0.00000000       0.002
   0.05006305  0.01941998  0.01734284       0.005
   0.06007566  0.01941998  0.03468567       0.005
   0.07008827  0.01941998  0.05202851       0.005
   0.08010089  0.01941998  0.06937134       0.005
   0.09011350  0.01941998  0.08671418       0.005
   0.10012611  0.01941998  0.10405702       0.005
   0.11013872  0.01941998  0.12139985       0.005
  -0.02002522  0.01941998 -0.10405702       0.005
  -0.01001261  0.01941998 -0.08671418       0.005
   0.00000000  0.01941998 -0.06937134       0.002
   0.06007566  0.01941998  0.00000000       0.002
   0.07008827  0.01941998  0.01734284       0.005
   0.08010089  0.01941998  0.03468567       0.005
   0.09011350  0.01941998  0.05202851       0.005
   0.10012611  0.01941998  0.06937134       0.005
   0.11013872  0.01941998  0.08671418       0.005
   0.12015133  0.01941998  0.10405702       0.005
   0.13016394  0.01941998  0.12139985       0.005
   0.00000000  0.01941998 -0.10405702       0.002
   0.08010089  0.01941998  0.00000000       0.002
   0.09011350  0.01941998  0.01734284       0.005
   0.10012611  0.01941998  0.03468567       0.005
   0.11013872  0.01941998  0.05202851       0.005
   0.12015133  0.01941998  0.06937134       0.005
   0.13016394  0.01941998  0.08671418       0.005
   0.14017655  0.01941998  0.10405702       0.002
   0.10012611  0.01941998  0.00000000       0.002
   0.11013872  0.01941998  0.01734284       0.005
   0.12015133  0.01941998  0.03468567       0.005
   0.13016394  0.01941998  0.05202851       0.005
   0.14017655  0.01941998  0.06937134       0.002
   0.12015133  0.01941998  0.00000000       0.002
   0.13016394  0.01941998  0.01734284       0.005
   0.14017655  0.01941998  0.03468567       0.002
   0.14017655  0.01941998  0.00000000       0.001
   0.00000000  0.03883996  0.00000000       0.001
   0.01001261  0.03883996  0.01734284       0.005
   0.02002522  0.03883996  0.03468567       0.005
   0.03003783  0.03883996  0.05202851       0.005
   0.04005044  0.03883996  0.06937134       0.005
   0.05006305  0.03883996  0.08671418       0.005
   0.06007566  0.03883996  0.10405702       0.005
   0.07008827  0.03883996  0.12139985       0.002
   0.02002522  0.03883996  0.00000000       0.002
   0.03003783  0.03883996  0.01734284       0.005
   0.04005044  0.03883996  0.03468567       0.005
   0.05006305  0.03883996  0.05202851       0.005
   0.06007566  0.03883996  0.06937134       0.005
   0.07008827  0.03883996  0.08671418       0.005
   0.08010089  0.03883996  0.10405702       0.005
   0.09011350  0.03883996  0.12139985       0.005
  -0.04005044  0.03883996 -0.10405702       0.005
  -0.03003783  0.03883996 -0.08671418       0.005
  -0.02002522  0.03883996 -0.06937134       0.005
  -0.01001261  0.03883996 -0.05202851       0.005
   0.00000000  0.03883996 -0.03468567       0.002
   0.04005044  0.03883996  0.00000000       0.002
   0.05006305  0.03883996  0.01734284       0.005
   0.06007566  0.03883996  0.03468567       0.005
   0.07008827  0.03883996  0.05202851       0.005
   0.08010089  0.03883996  0.06937134       0.005
   0.09011350  0.03883996  0.08671418       0.005
   0.10012611  0.03883996  0.10405702       0.005
   0.11013872  0.03883996  0.12139985       0.005
  -0.02002522  0.03883996 -0.10405702       0.005
  -0.01001261  0.03883996 -0.08671418       0.005
   0.00000000  0.03883996 -0.06937134       0.002
   0.06007566  0.03883996  0.00000000       0.002
   0.07008827  0.03883996  0.01734284       0.005
   0.08010089  0.03883996  0.03468567       0.005
   0.09011350  0.03883996  0.05202851       0.005
   0.10012611  0.03883996  0.06937134       0.005
   0.11013872  0.03883996  0.08671418       0.005
   0.12015133  0.03883996  0.10405702       0.005
   0.13016394  0.03883996  0.12139985       0.005
   0.00000000  0.03883996 -0.10405702       0.002
   0.08010089  0.03883996  0.00000000       0.002
   0.09011350  0.03883996  0.01734284       0.005
   0.10012611  0.03883996  0.03468567       0.005
   0.11013872  0.03883996  0.05202851       0.005
   0.12015133  0.03883996  0.06937134       0.005
   0.13016394  0.03883996  0.08671418       0.005
   0.14017655  0.03883996  0.10405702       0.002
   0.10012611  0.03883996  0.00000000       0.002
   0.11013872  0.03883996  0.01734284       0.005
   0.12015133  0.03883996  0.03468567       0.005
   0.13016394  0.03883996  0.05202851       0.005
   0.14017655  0.03883996  0.06937134       0.002
   0.12015133  0.03883996  0.00000000       0.002
   0.13016394  0.03883996  0.01734284       0.005
   0.14017655  0.03883996  0.03468567       0.002
   0.14017655  0.03883996  0.00000000       0.001
   0.00000000  0.05825994  0.00000000       0.001
   0.01001261  0.05825994  0.01734284       0.005
   0.02002522  0.05825994  0.03468567       0.005
   0.03003783  0.05825994  0.05202851       0.005
   0.04005044  0.05825994  0.06937134       0.005
   0.05006305  0.05825994  0.08671418       0.005
   0.06007566  0.05825994  0.10405702       0.005
   0.07008827  0.05825994  0.12139985       0.002
   0.02002522  0.05825994  0.00000000       0.002
   0.03003783  0.05825994  0.01734284       0.005
   0.04005044  0.05825994  0.03468567       0.005
   0.05006305  0.05825994  0.05202851       0.005
   0.06007566  0.05825994  0.06937134       0.005
   0.07008827  0.05825994  0.08671418       0.005
   0.08010089  0.05825994  0.10405702       0.005
   0.09011350  0.05825994  0.12139985       0.005
  -0.04005044  0.05825994 -0.10405702       0.005
  -0.03003783  0.05825994 -0.08671418       0.005
  -0.02002522  0.05825994 -0.06937134       0.005
  -0.01001261  0.05825994 -0.05202851       0.005
   0.00000000  0.05825994 -0.03468567       0.002
   0.04005044  0.05825994  0.00000000       0.002
   0.05006305  0.05825994  0.01734284       0.005
   0.06007566  0.05825994  0.03468567       0.005
   0.07008827  0.05825994  0.05202851       0.005
   0.08010089  0.05825994  0.06937134       0.005
   0.09011350  0.05825994  0.08671418       0.005
   0.10012611  0.05825994  0.10405702       0.005
   0.11013872  0.05825994  0.12139985       0.005
  -0.02002522  0.05825994 -0.10405702       0.005
  -0.01001261  0.05825994 -0.08671418       0.005
   0.00000000  0.05825994 -0.06937134       0.002
   0.06007566  0.05825994  0.00000000       0.002
   0.07008827  0.05825994  0.01734284       0.005
   0.08010089  0.05825994  0.03468567       0.005
   0.09011350  0.05825994  0.05202851       0.005
   0.10012611  0.05825994  0.06937134       0.005
   0.11013872  0.05825994  0.08671418       0.005
   0.12015133  0.05825994  0.10405702       0.005
   0.13016394  0.05825994  0.12139985       0.005
   0.00000000  0.05825994 -0.10405702       0.002
   0.08010089  0.05825994  0.00000000       0.002
   0.09011350  0.05825994  0.01734284       0.005
   0.10012611  0.05825994  0.03468567       0.005
   0.11013872  0.05825994  0.05202851       0.005
   0.12015133  0.05825994  0.06937134       0.005
   0.13016394  0.05825994  0.08671418       0.005
   0.14017655  0.05825994  0.10405702       0.002
   0.10012611  0.05825994  0.00000000       0.002
   0.11013872  0.05825994  0.01734284       0.005
   0.12015133  0.05825994  0.03468567       0.005
   0.13016394  0.05825994  0.05202851       0.005
   0.14017655  0.05825994  0.06937134       0.002
   0.12015133  0.05825994  0.00000000       0.002
   0.13016394  0.05825994  0.01734284       0.005
   0.14017655  0.05825994  0.03468567       0.002
   0.14017655  0.05825994  0.00000000       0.001
   0.00000000  0.07767992  0.00000000       0.001
   0.01001261  0.07767992  0.01734284       0.005
   0.02002522  0.07767992  0.03468567       0.005
   0.03003783  0.07767992  0.05202851       0.005
   0.04005044  0.07767992  0.06937134       0.005
   0.05006305  0.07767992  0.08671418       0.005
   0.06007566  0.07767992  0.10405702       0.005
   0.07008827  0.07767992  0.12139985       0.002
   0.02002522  0.07767992  0.00000000       0.002
   0.03003783  0.07767992  0.01734284       0.005
   0.04005044  0.07767992  0.03468567       0.005
   0.05006305  0.07767992  0.05202851       0.005
   0.06007566  0.07767992  0.06937134       0.005
   0.07008827  0.07767992  0.08671418       0.005
   0.08010089  0.07767992  0.10405702       0.005
   0.09011350  0.07767992  0.12139985       0.005
  -0.04005044  0.07767992 -0.10405702       0.005
  -0.03003783  0.07767992 -0.08671418       0.005
  -0.02002522  0.07767992 -0.06937134       0.005
  -0.01001261  0.07767992 -0.05202851       0.005
   0.00000000  0.07767992 -0.03468567       0.002
   0.04005044  0.07767992  0.00000000       0.002
   0.05006305  0.07767992  0.01734284       0.005
   0.06007566  0.07767992  0.03468567       0.005
   0.07008827  0.07767992  0.05202851       0.005
   0.08010089  0.07767992  0.06937134       0.005
   0.09011350  0.07767992  0.08671418       0.005
   0.10012611  0.07767992  0.10405702       0.005
   0.11013872  0.07767992  0.12139985       0.005
  -0.02002522  0.07767992 -0.10405702       0.005
  -0.01001261  0.07767992 -0.08671418       0.005
   0.00000000  0.07767992 -0.06937134       0.002
   0.06007566  0.07767992  0.00000000       0.002
   0.07008827  0.07767992  0.01734284       0.005
   0.08010089  0.07767992  0.03468567       0.005
   0.09011350  0.07767992  0.05202851       0.005
   0.10012611  0.07767992  0.06937134       0.005
   0.11013872  0.07767992  0.08671418       0.005
   0.12015133  0.07767992  0.10405702       0.005
   0.13016394  0.07767992  0.12139985       0.005
   0.00000000  0.07767992 -0.10405702       0.002
   0.08010089  0.07767992  0.00000000       0.002
   0.09011350  0.07767992  0.01734284       0.005
   0.10012611  0.07767992  0.03468567       0.005
   0.11013872  0.07767992  0.05202851       0.005
   0.12015133  0.07767992  0.06937134       0.005
   0.13016394  0.07767992  0.08671418       0.005
   0.14017655  0.07767992  0.10405702       0.002
   0.10012611  0.07767992  0.00000000       0.002
   0.11013872  0.07767992  0.01734284       0.005
   0.12015133  0.07767992  0.03468567       0.005
   0.13016394  0.07767992  0.05202851       0.005
   0.14017655  0.07767992  0.06937134       0.002
   0.12015133  0.07767992  0.00000000       0.002
   0.13016394  0.07767992  0.01734284       0.005
   0.14017655  0.07767992  0.03468567       0.002
   0.14017655  0.07767992  0.00000000       0.001
 
 k-points in reciprocal lattice and weights: K-Mesh                                  
   0.00000000  0.00000000  0.00000000       0.001
   0.07142857  0.00000000  0.00000000       0.002
   0.14285714  0.00000000  0.00000000       0.002
   0.21428571  0.00000000  0.00000000       0.002
   0.28571429  0.00000000  0.00000000       0.002
   0.35714286  0.00000000  0.00000000       0.002
   0.42857143  0.00000000  0.00000000       0.002
   0.50000000  0.00000000  0.00000000       0.001
   0.00000000  0.07142857  0.00000000       0.001
   0.07142857  0.07142857  0.00000000       0.002
   0.14285714  0.07142857  0.00000000       0.002
   0.21428571  0.07142857  0.00000000       0.002
   0.28571429  0.07142857  0.00000000       0.002
   0.35714286  0.07142857  0.00000000       0.002
   0.42857143  0.07142857  0.00000000       0.002
   0.50000000  0.07142857  0.00000000       0.002
  -0.42857143  0.07142857  0.00000000       0.002
  -0.35714286  0.07142857  0.00000000       0.002
  -0.28571429  0.07142857  0.00000000       0.002
  -0.21428571  0.07142857  0.00000000       0.002
  -0.14285714  0.07142857  0.00000000       0.001
   0.00000000  0.14285714  0.00000000       0.001
   0.07142857  0.14285714  0.00000000       0.002
   0.14285714  0.14285714  0.00000000       0.002
   0.21428571  0.14285714  0.00000000       0.002
   0.28571429  0.14285714  0.00000000       0.002
   0.35714286  0.14285714  0.00000000       0.002
   0.42857143  0.14285714  0.00000000       0.002
   0.50000000  0.14285714  0.00000000       0.002
  -0.42857143  0.14285714  0.00000000       0.002
  -0.35714286  0.14285714  0.00000000       0.002
  -0.28571429  0.14285714  0.00000000       0.001
   0.00000000  0.21428571  0.00000000       0.001
   0.07142857  0.21428571  0.00000000       0.002
   0.14285714  0.21428571  0.00000000       0.002
   0.21428571  0.21428571  0.00000000       0.002
   0.28571429  0.21428571  0.00000000       0.002
   0.35714286  0.21428571  0.00000000       0.002
   0.42857143  0.21428571  0.00000000       0.002
   0.50000000  0.21428571  0.00000000       0.002
  -0.42857143  0.21428571  0.00000000       0.001
   0.00000000  0.28571429  0.00000000       0.001
   0.07142857  0.28571429  0.00000000       0.002
   0.14285714  0.28571429  0.00000000       0.002
   0.21428571  0.28571429  0.00000000       0.002
   0.28571429  0.28571429  0.00000000       0.002
   0.35714286  0.28571429  0.00000000       0.002
   0.42857143  0.28571429  0.00000000       0.001
   0.00000000  0.35714286  0.00000000       0.001
   0.07142857  0.35714286  0.00000000       0.002
   0.14285714  0.35714286  0.00000000       0.002
   0.21428571  0.35714286  0.00000000       0.002
   0.28571429  0.35714286  0.00000000       0.001
   0.00000000  0.42857143  0.00000000       0.001
   0.07142857  0.42857143  0.00000000       0.002
   0.14285714  0.42857143  0.00000000       0.001
   0.00000000  0.50000000  0.00000000       0.001
   0.00000000  0.00000000  0.11111111       0.001
   0.07142857  0.00000000  0.11111111       0.005
   0.14285714  0.00000000  0.11111111       0.005
   0.21428571  0.00000000  0.11111111       0.005
   0.28571429  0.00000000  0.11111111       0.005
   0.35714286  0.00000000  0.11111111       0.005
   0.42857143  0.00000000  0.11111111       0.005
   0.50000000  0.00000000  0.11111111       0.002
   0.00000000  0.07142857  0.11111111       0.002
   0.07142857  0.07142857  0.11111111       0.005
   0.14285714  0.07142857  0.11111111       0.005
   0.21428571  0.07142857  0.11111111       0.005
   0.28571429  0.07142857  0.11111111       0.005
   0.35714286  0.07142857  0.11111111       0.005
   0.42857143  0.07142857  0.11111111       0.005
   0.50000000  0.07142857  0.11111111       0.005
  -0.42857143  0.07142857  0.11111111       0.005
  -0.35714286  0.07142857  0.11111111       0.005
  -0.28571429  0.07142857  0.11111111       0.005
  -0.21428571  0.07142857  0.11111111       0.005
  -0.14285714  0.07142857  0.11111111       0.002
   0.00000000  0.14285714  0.11111111       0.002
   0.07142857  0.14285714  0.11111111       0.005
   0.14285714  0.14285714  0.11111111       0.005
   0.21428571  0.14285714  0.11111111       0.005
   0.28571429  0.14285714  0.11111111       0.005
   0.35714286  0.14285714  0.11111111       0.005
   0.42857143  0.14285714  0.11111111       0.005
   0.50000000  0.14285714  0.11111111       0.005
  -0.42857143  0.14285714  0.11111111       0.005
  -0.35714286  0.14285714  0.11111111       0.005
  -0.28571429  0.14285714  0.11111111       0.002
   0.00000000  0.21428571  0.11111111       0.002
   0.07142857  0.21428571  0.11111111       0.005
   0.14285714  0.21428571  0.11111111       0.005
   0.21428571  0.21428571  0.11111111       0.005
   0.28571429  0.21428571  0.11111111       0.005
   0.35714286  0.21428571  0.11111111       0.005
   0.42857143  0.21428571  0.11111111       0.005
   0.50000000  0.21428571  0.11111111       0.005
  -0.42857143  0.21428571  0.11111111       0.002
   0.00000000  0.28571429  0.11111111       0.002
   0.07142857  0.28571429  0.11111111       0.005
   0.14285714  0.28571429  0.11111111       0.005
   0.21428571  0.28571429  0.11111111       0.005
   0.28571429  0.28571429  0.11111111       0.005
   0.35714286  0.28571429  0.11111111       0.005
   0.42857143  0.28571429  0.11111111       0.002
   0.00000000  0.35714286  0.11111111       0.002
   0.07142857  0.35714286  0.11111111       0.005
   0.14285714  0.35714286  0.11111111       0.005
   0.21428571  0.35714286  0.11111111       0.005
   0.28571429  0.35714286  0.11111111       0.002
   0.00000000  0.42857143  0.11111111       0.002
   0.07142857  0.42857143  0.11111111       0.005
   0.14285714  0.42857143  0.11111111       0.002
   0.00000000  0.50000000  0.11111111       0.001
   0.00000000  0.00000000  0.22222222       0.001
   0.07142857  0.00000000  0.22222222       0.005
   0.14285714  0.00000000  0.22222222       0.005
   0.21428571  0.00000000  0.22222222       0.005
   0.28571429  0.00000000  0.22222222       0.005
   0.35714286  0.00000000  0.22222222       0.005
   0.42857143  0.00000000  0.22222222       0.005
   0.50000000  0.00000000  0.22222222       0.002
   0.00000000  0.07142857  0.22222222       0.002
   0.07142857  0.07142857  0.22222222       0.005
   0.14285714  0.07142857  0.22222222       0.005
   0.21428571  0.07142857  0.22222222       0.005
   0.28571429  0.07142857  0.22222222       0.005
   0.35714286  0.07142857  0.22222222       0.005
   0.42857143  0.07142857  0.22222222       0.005
   0.50000000  0.07142857  0.22222222       0.005
  -0.42857143  0.07142857  0.22222222       0.005
  -0.35714286  0.07142857  0.22222222       0.005
  -0.28571429  0.07142857  0.22222222       0.005
  -0.21428571  0.07142857  0.22222222       0.005
  -0.14285714  0.07142857  0.22222222       0.002
   0.00000000  0.14285714  0.22222222       0.002
   0.07142857  0.14285714  0.22222222       0.005
   0.14285714  0.14285714  0.22222222       0.005
   0.21428571  0.14285714  0.22222222       0.005
   0.28571429  0.14285714  0.22222222       0.005
   0.35714286  0.14285714  0.22222222       0.005
   0.42857143  0.14285714  0.22222222       0.005
   0.50000000  0.14285714  0.22222222       0.005
  -0.42857143  0.14285714  0.22222222       0.005
  -0.35714286  0.14285714  0.22222222       0.005
  -0.28571429  0.14285714  0.22222222       0.002
   0.00000000  0.21428571  0.22222222       0.002
   0.07142857  0.21428571  0.22222222       0.005
   0.14285714  0.21428571  0.22222222       0.005
   0.21428571  0.21428571  0.22222222       0.005
   0.28571429  0.21428571  0.22222222       0.005
   0.35714286  0.21428571  0.22222222       0.005
   0.42857143  0.21428571  0.22222222       0.005
   0.50000000  0.21428571  0.22222222       0.005
  -0.42857143  0.21428571  0.22222222       0.002
   0.00000000  0.28571429  0.22222222       0.002
   0.07142857  0.28571429  0.22222222       0.005
   0.14285714  0.28571429  0.22222222       0.005
   0.21428571  0.28571429  0.22222222       0.005
   0.28571429  0.28571429  0.22222222       0.005
   0.35714286  0.28571429  0.22222222       0.005
   0.42857143  0.28571429  0.22222222       0.002
   0.00000000  0.35714286  0.22222222       0.002
   0.07142857  0.35714286  0.22222222       0.005
   0.14285714  0.35714286  0.22222222       0.005
   0.21428571  0.35714286  0.22222222       0.005
   0.28571429  0.35714286  0.22222222       0.002
   0.00000000  0.42857143  0.22222222       0.002
   0.07142857  0.42857143  0.22222222       0.005
   0.14285714  0.42857143  0.22222222       0.002
   0.00000000  0.50000000  0.22222222       0.001
   0.00000000  0.00000000  0.33333333       0.001
   0.07142857  0.00000000  0.33333333       0.005
   0.14285714  0.00000000  0.33333333       0.005
   0.21428571  0.00000000  0.33333333       0.005
   0.28571429  0.00000000  0.33333333       0.005
   0.35714286  0.00000000  0.33333333       0.005
   0.42857143  0.00000000  0.33333333       0.005
   0.50000000  0.00000000  0.33333333       0.002
   0.00000000  0.07142857  0.33333333       0.002
   0.07142857  0.07142857  0.33333333       0.005
   0.14285714  0.07142857  0.33333333       0.005
   0.21428571  0.07142857  0.33333333       0.005
   0.28571429  0.07142857  0.33333333       0.005
   0.35714286  0.07142857  0.33333333       0.005
   0.42857143  0.07142857  0.33333333       0.005
   0.50000000  0.07142857  0.33333333       0.005
  -0.42857143  0.07142857  0.33333333       0.005
  -0.35714286  0.07142857  0.33333333       0.005
  -0.28571429  0.07142857  0.33333333       0.005
  -0.21428571  0.07142857  0.33333333       0.005
  -0.14285714  0.07142857  0.33333333       0.002
   0.00000000  0.14285714  0.33333333       0.002
   0.07142857  0.14285714  0.33333333       0.005
   0.14285714  0.14285714  0.33333333       0.005
   0.21428571  0.14285714  0.33333333       0.005
   0.28571429  0.14285714  0.33333333       0.005
   0.35714286  0.14285714  0.33333333       0.005
   0.42857143  0.14285714  0.33333333       0.005
   0.50000000  0.14285714  0.33333333       0.005
  -0.42857143  0.14285714  0.33333333       0.005
  -0.35714286  0.14285714  0.33333333       0.005
  -0.28571429  0.14285714  0.33333333       0.002
   0.00000000  0.21428571  0.33333333       0.002
   0.07142857  0.21428571  0.33333333       0.005
   0.14285714  0.21428571  0.33333333       0.005
   0.21428571  0.21428571  0.33333333       0.005
   0.28571429  0.21428571  0.33333333       0.005
   0.35714286  0.21428571  0.33333333       0.005
   0.42857143  0.21428571  0.33333333       0.005
   0.50000000  0.21428571  0.33333333       0.005
  -0.42857143  0.21428571  0.33333333       0.002
   0.00000000  0.28571429  0.33333333       0.002
   0.07142857  0.28571429  0.33333333       0.005
   0.14285714  0.28571429  0.33333333       0.005
   0.21428571  0.28571429  0.33333333       0.005
   0.28571429  0.28571429  0.33333333       0.005
   0.35714286  0.28571429  0.33333333       0.005
   0.42857143  0.28571429  0.33333333       0.002
   0.00000000  0.35714286  0.33333333       0.002
   0.07142857  0.35714286  0.33333333       0.005
   0.14285714  0.35714286  0.33333333       0.005
   0.21428571  0.35714286  0.33333333       0.005
   0.28571429  0.35714286  0.33333333       0.002
   0.00000000  0.42857143  0.33333333       0.002
   0.07142857  0.42857143  0.33333333       0.005
   0.14285714  0.42857143  0.33333333       0.002
   0.00000000  0.50000000  0.33333333       0.001
   0.00000000  0.00000000  0.44444444       0.001
   0.07142857  0.00000000  0.44444444       0.005
   0.14285714  0.00000000  0.44444444       0.005
   0.21428571  0.00000000  0.44444444       0.005
   0.28571429  0.00000000  0.44444444       0.005
   0.35714286  0.00000000  0.44444444       0.005
   0.42857143  0.00000000  0.44444444       0.005
   0.50000000  0.00000000  0.44444444       0.002
   0.00000000  0.07142857  0.44444444       0.002
   0.07142857  0.07142857  0.44444444       0.005
   0.14285714  0.07142857  0.44444444       0.005
   0.21428571  0.07142857  0.44444444       0.005
   0.28571429  0.07142857  0.44444444       0.005
   0.35714286  0.07142857  0.44444444       0.005
   0.42857143  0.07142857  0.44444444       0.005
   0.50000000  0.07142857  0.44444444       0.005
  -0.42857143  0.07142857  0.44444444       0.005
  -0.35714286  0.07142857  0.44444444       0.005
  -0.28571429  0.07142857  0.44444444       0.005
  -0.21428571  0.07142857  0.44444444       0.005
  -0.14285714  0.07142857  0.44444444       0.002
   0.00000000  0.14285714  0.44444444       0.002
   0.07142857  0.14285714  0.44444444       0.005
   0.14285714  0.14285714  0.44444444       0.005
   0.21428571  0.14285714  0.44444444       0.005
   0.28571429  0.14285714  0.44444444       0.005
   0.35714286  0.14285714  0.44444444       0.005
   0.42857143  0.14285714  0.44444444       0.005
   0.50000000  0.14285714  0.44444444       0.005
  -0.42857143  0.14285714  0.44444444       0.005
  -0.35714286  0.14285714  0.44444444       0.005
  -0.28571429  0.14285714  0.44444444       0.002
   0.00000000  0.21428571  0.44444444       0.002
   0.07142857  0.21428571  0.44444444       0.005
   0.14285714  0.21428571  0.44444444       0.005
   0.21428571  0.21428571  0.44444444       0.005
   0.28571429  0.21428571  0.44444444       0.005
   0.35714286  0.21428571  0.44444444       0.005
   0.42857143  0.21428571  0.44444444       0.005
   0.50000000  0.21428571  0.44444444       0.005
  -0.42857143  0.21428571  0.44444444       0.002
   0.00000000  0.28571429  0.44444444       0.002
   0.07142857  0.28571429  0.44444444       0.005
   0.14285714  0.28571429  0.44444444       0.005
   0.21428571  0.28571429  0.44444444       0.005
   0.28571429  0.28571429  0.44444444       0.005
   0.35714286  0.28571429  0.44444444       0.005
   0.42857143  0.28571429  0.44444444       0.002
   0.00000000  0.35714286  0.44444444       0.002
   0.07142857  0.35714286  0.44444444       0.005
   0.14285714  0.35714286  0.44444444       0.005
   0.21428571  0.35714286  0.44444444       0.005
   0.28571429  0.35714286  0.44444444       0.002
   0.00000000  0.42857143  0.44444444       0.002
   0.07142857  0.42857143  0.44444444       0.005
   0.14285714  0.42857143  0.44444444       0.002
   0.00000000  0.50000000  0.44444444       0.001
 
 position of ions in fractional coordinates (direct lattice) 
   0.66671989  0.83343978  0.25000000
   0.33328011  0.16656022  0.75000000
   0.00000000  0.50000000  0.00000000
   0.00000000  0.50000000  0.50000000
   0.33337278  0.16674556  0.25000000
   0.66662722  0.83325444  0.75000000
 
 position of ions in cartesian coordinates  (Angst):
   2.97282170  1.43037103  1.02965528
   0.59410873  4.29111309  1.02965528
   1.78346521  0.00000000 -1.02965528
   1.78346521  2.86074206 -1.02965528
   0.59476982  1.43037103  1.02965528
   2.97216061  4.29111309  1.02965528
 


--------------------------------------------------------------------------------------------------------


 k-point  1 :   0.0000 0.0000 0.0000  plane waves:    2271
 k-point  2 :   0.0714 0.0000 0.0000  plane waves:    2265
 k-point  3 :   0.1429 0.0000 0.0000  plane waves:    2265
 k-point  4 :   0.2143 0.0000 0.0000  plane waves:    2263
 k-point  5 :   0.2857 0.0000 0.0000  plane waves:    2269
 k-point  6 :   0.3571 0.0000 0.0000  plane waves:    2275
 k-point  7 :   0.4286 0.0000 0.0000  plane waves:    2282
 k-point  8 :   0.5000 0.0000 0.0000  plane waves:    2278
 k-point  9 :   0.0000 0.0714 0.0000  plane waves:    2265
 k-point 10 :   0.0714 0.0714 0.0000  plane waves:    2265
 k-point 11 :   0.1429 0.0714 0.0000  plane waves:    2265
 k-point 12 :   0.2143 0.0714 0.0000  plane waves:    2276
 k-point 13 :   0.2857 0.0714 0.0000  plane waves:    2263
 k-point 14 :   0.3571 0.0714 0.0000  plane waves:    2258
 k-point 15 :   0.4286 0.0714 0.0000  plane waves:    2275
 k-point 16 :   0.5000 0.0714 0.0000  plane waves:    2275
 k-point 17 :  -0.4286 0.0714 0.0000  plane waves:    2258
 k-point 18 :  -0.3571 0.0714 0.0000  plane waves:    2263
 k-point 19 :  -0.2857 0.0714 0.0000  plane waves:    2276
 k-point 20 :  -0.2143 0.0714 0.0000  plane waves:    2265
 k-point 21 :  -0.1429 0.0714 0.0000  plane waves:    2265
 k-point 22 :   0.0000 0.1429 0.0000  plane waves:    2265
 k-point 23 :   0.0714 0.1429 0.0000  plane waves:    2265
 k-point 24 :   0.1429 0.1429 0.0000  plane waves:    2267
 k-point 25 :   0.2143 0.1429 0.0000  plane waves:    2263
 k-point 26 :   0.2857 0.1429 0.0000  plane waves:    2262
 k-point 27 :   0.3571 0.1429 0.0000  plane waves:    2263
 k-point 28 :   0.4286 0.1429 0.0000  plane waves:    2264
 k-point 29 :   0.5000 0.1429 0.0000  plane waves:    2263
 k-point 30 :  -0.4286 0.1429 0.0000  plane waves:    2262
 k-point 31 :  -0.3571 0.1429 0.0000  plane waves:    2263
 k-point 32 :  -0.2857 0.1429 0.0000  plane waves:    2267
 k-point 33 :   0.0000 0.2143 0.0000  plane waves:    2263
 k-point 34 :   0.0714 0.2143 0.0000  plane waves:    2276
 k-point 35 :   0.1429 0.2143 0.0000  plane waves:    2263
 k-point 36 :   0.2143 0.2143 0.0000  plane waves:    2252
 k-point 37 :   0.2857 0.2143 0.0000  plane waves:    2262
 k-point 38 :   0.3571 0.2143 0.0000  plane waves:    2259
 k-point 39 :   0.4286 0.2143 0.0000  plane waves:    2259
 k-point 40 :   0.5000 0.2143 0.0000  plane waves:    2262
 k-point 41 :  -0.4286 0.2143 0.0000  plane waves:    2252
 k-point 42 :   0.0000 0.2857 0.0000  plane waves:    2269
 k-point 43 :   0.0714 0.2857 0.0000  plane waves:    2263
 k-point 44 :   0.1429 0.2857 0.0000  plane waves:    2262
 k-point 45 :   0.2143 0.2857 0.0000  plane waves:    2262
 k-point 46 :   0.2857 0.2857 0.0000  plane waves:    2270
 k-point 47 :   0.3571 0.2857 0.0000  plane waves:    2252
 k-point 48 :   0.4286 0.2857 0.0000  plane waves:    2270
 k-point 49 :   0.0000 0.3571 0.0000  plane waves:    2275
 k-point 50 :   0.0714 0.3571 0.0000  plane waves:    2258
 k-point 51 :   0.1429 0.3571 0.0000  plane waves:    2263
 k-point 52 :   0.2143 0.3571 0.0000  plane waves:    2259
 k-point 53 :   0.2857 0.3571 0.0000  plane waves:    2252
 k-point 54 :   0.0000 0.4286 0.0000  plane waves:    2282
 k-point 55 :   0.0714 0.4286 0.0000  plane waves:    2275
 k-point 56 :   0.1429 0.4286 0.0000  plane waves:    2264
 k-point 57 :   0.0000 0.5000 0.0000  plane waves:    2278
 k-point 58 :   0.0000 0.0000 0.1111  plane waves:    2271
 k-point 59 :   0.0714 0.0000 0.1111  plane waves:    2268
 k-point 60 :   0.1429 0.0000 0.1111  plane waves:    2262
 k-point 61 :   0.2143 0.0000 0.1111  plane waves:    2266
 k-point 62 :   0.2857 0.0000 0.1111  plane waves:    2268
 k-point 63 :   0.3571 0.0000 0.1111  plane waves:    2265
 k-point 64 :   0.4286 0.0000 0.1111  plane waves:    2267
 k-point 65 :   0.5000 0.0000 0.1111  plane waves:    2272
 k-point 66 :   0.0000 0.0714 0.1111  plane waves:    2268
 k-point 67 :   0.0714 0.0714 0.1111  plane waves:    2264
 k-point 68 :   0.1429 0.0714 0.1111  plane waves:    2264
 k-point 69 :   0.2143 0.0714 0.1111  plane waves:    2269
 k-point 70 :   0.2857 0.0714 0.1111  plane waves:    2266
 k-point 71 :   0.3571 0.0714 0.1111  plane waves:    2268
 k-point 72 :   0.4286 0.0714 0.1111  plane waves:    2267
 k-point 73 :   0.5000 0.0714 0.1111  plane waves:    2267
 k-point 74 :  -0.4286 0.0714 0.1111  plane waves:    2268
 k-point 75 :  -0.3571 0.0714 0.1111  plane waves:    2266
 k-point 76 :  -0.2857 0.0714 0.1111  plane waves:    2269
 k-point 77 :  -0.2143 0.0714 0.1111  plane waves:    2264
 k-point 78 :  -0.1429 0.0714 0.1111  plane waves:    2264
[...]
     17       7.7529      0.00000
     18       7.8297      0.00000

 k-point   269 :      -0.4286    0.2143    0.4444
  band No.  band energies     occupation 
      1     -33.0385      2.00000
      2     -33.0312      2.00000
      3     -15.4069      2.00000
      4     -15.3734      2.00000
      5     -15.0502      2.00000
      6     -15.0142      2.00000
      7     -14.9495      2.00000
      8     -14.9227      2.00000
      9      -1.6855      2.00000
     10      -1.4211      2.00000
     11      -0.4129      2.00000
     12      -0.3959      2.00000
     13       3.8843      0.00000
     14       3.9487      0.00000
     15       5.6994      0.00000
     16       6.0022      0.00000
     17       7.6558      0.00000
     18       7.7424      0.00000

 k-point   270 :       0.0000    0.2857    0.4444
  band No.  band energies     occupation 
      1     -33.0446      2.00000
      2     -33.0344      2.00000
      3     -15.3846      2.00000
      4     -15.3309      2.00000
      5     -14.9869      2.00000
      6     -14.9755      2.00000
      7     -14.9457      2.00000
      8     -14.9419      2.00000
      9      -2.1941      2.00000
     10      -1.8715      2.00000
     11      -0.1092      2.00000
     12      -0.0373      2.00000
     13       4.5518      0.00000
     14       4.7271      0.00000
     15       5.3742      0.00000
     16       5.5979      0.00000
     17       6.5891      0.00000
     18       6.9387      0.00000

 k-point   271 :       0.0714    0.2857    0.4444
  band No.  band energies     occupation 
      1     -33.0417      2.00000
      2     -33.0327      2.00000
      3     -15.4017      2.00000
      4     -15.3573      2.00000
      5     -15.0065      2.00000
      6     -14.9807      2.00000
      7     -14.9585      2.00000
      8     -14.9347      2.00000
      9      -1.9565      2.00000
     10      -1.6619      2.00000
     11      -0.2839      2.00000
     12      -0.2371      2.00000
     13       4.3117      0.00000
     14       4.4576      0.00000
     15       5.5263      0.00000
     16       5.7784      0.00000
     17       6.9031      0.00000
     18       7.2604      0.00000

 k-point   272 :       0.1429    0.2857    0.4444
  band No.  band energies     occupation 
      1     -33.0382      2.00000
      2     -33.0310      2.00000
      3     -15.4142      2.00000
      4     -15.3804      2.00000
      5     -15.0418      2.00000
      6     -15.0052      2.00000
      7     -14.9541      2.00000
      8     -14.9265      2.00000
      9      -1.6565      2.00000
     10      -1.4000      2.00000
     11      -0.4593      2.00000
     12      -0.4293      2.00000
     13       3.9446      0.00000
     14       4.0291      0.00000
     15       5.6961      0.00000
     16       5.9962      0.00000
     17       7.4535      0.00000
     18       7.6422      0.00000

 k-point   273 :       0.2143    0.2857    0.4444
  band No.  band energies     occupation 
      1     -33.0348      2.00000
      2     -33.0298      2.00000
      3     -15.4189      2.00000
      4     -15.3960      2.00000
      5     -15.0801      2.00000
      6     -15.0367      2.00000
      7     -14.9438      2.00000
      8     -14.9219      2.00000
      9      -1.3366      2.00000
     10      -1.1277      2.00000
     11      -0.6108      2.00000
     12      -0.5835      2.00000
     13       3.5605      0.00000
     14       3.5917      0.00000
     15       5.8988      0.00000
     16       6.2262      0.00000
     17       7.7539      0.00000
     18       7.8305      0.00000

 k-point   274 :       0.2857    0.2857    0.4444
  band No.  band energies     occupation 
      1     -33.0321      2.00000
      2     -33.0293      2.00000
      3     -15.4170      2.00000
      4     -15.4044      2.00000
      5     -15.1108      2.00000
      6     -15.0617      2.00000
      7     -14.9344      2.00000
      8     -14.9213      2.00000
      9      -1.0593      2.00000
     10      -0.9048      2.00000
     11      -0.7285      2.00000
     12      -0.6913      2.00000
     13       3.2609      0.00000
     14       3.2624      0.00000
     15       6.1580      0.00000
     16       6.4934      0.00000
     17       7.4900      0.00000
     18       7.5739      0.00000

 k-point   275 :       0.3571    0.2857    0.4444
  band No.  band energies     occupation 
      1     -33.0308      2.00000
      2     -33.0295      2.00000
      3     -15.4143      2.00000
      4     -15.4076      2.00000
      5     -15.1228      2.00000
      6     -15.0714      2.00000
      7     -14.9294      2.00000
      8     -14.9228      2.00000
      9      -0.9104      2.00000
     10      -0.8101      2.00000
     11      -0.7823      2.00000
     12      -0.7641      2.00000
     13       3.1381      0.00000
     14       3.1454      0.00000
     15       6.3283      0.00000
     16       6.6852      0.00000
     17       7.2795      0.00000
     18       7.3075      0.00000

 k-point   276 :       0.4286    0.2857    0.4444
  band No.  band energies     occupation 
      1     -33.0321      2.00000
      2     -33.0293      2.00000
      3     -15.4170      2.00000
      4     -15.4043      2.00000
      5     -15.1109      2.00000
      6     -15.0618      2.00000
      7     -14.9344      2.00000
      8     -14.9213      2.00000
      9      -1.0594      2.00000
     10      -0.9050      2.00000
     11      -0.7283      2.00000
     12      -0.6912      2.00000
     13       3.2608      0.00000
     14       3.2626      0.00000
     15       6.1581      0.00000
     16       6.4937      0.00000
     17       7.4894      0.00000
     18       7.5735      0.00000

 k-point   277 :       0.0000    0.3571    0.4444
  band No.  band energies     occupation 
      1     -33.0398      2.00000
      2     -33.0318      2.00000
      3     -15.4181      2.00000
      4     -15.3781      2.00000
      5     -14.9927      2.00000
      6     -14.9884      2.00000
      7     -14.9531      2.00000
      8     -14.9523      2.00000
      9      -1.7964      2.00000
     10      -1.5272      2.00000
     11      -0.4198      2.00000
     12      -0.3752      2.00000
     13       4.2861      0.00000
     14       4.4667      0.00000
     15       5.5326      0.00000
     16       5.8650      0.00000
     17       6.8592      0.00000
     18       7.3763      0.00000

 k-point   278 :       0.0714    0.3571    0.4444
  band No.  band energies     occupation 
      1     -33.0374      2.00000
      2     -33.0307      2.00000
      3     -15.4299      2.00000
      4     -15.3961      2.00000
      5     -15.0210      2.00000
      6     -14.9856      2.00000
      7     -14.9673      2.00000
      8     -14.9382      2.00000
      9      -1.5689      2.00000
     10      -1.3358      2.00000
     11      -0.5729      2.00000
     12      -0.5181      2.00000
     13       4.0640      0.00000
     14       4.2003      0.00000
     15       5.6517      0.00000
     16       6.0037      0.00000
     17       7.1842      0.00000
     18       7.6520      0.00000

 k-point   279 :       0.1429    0.3571    0.4444
  band No.  band energies     occupation 
      1     -33.0348      2.00000
      2     -33.0298      2.00000
      3     -15.4320      2.00000
      4     -15.4057      2.00000
      5     -15.0597      2.00000
      6     -15.0171      2.00000
      7     -14.9530      2.00000
      8     -14.9276      2.00000
      9      -1.3006      2.00000
     10      -1.1114      2.00000
     11      -0.7079      2.00000
     12      -0.6402      2.00000
     13       3.7115      0.00000
     14       3.7797      0.00000
     15       5.8376      0.00000
     16       6.1825      0.00000
     17       7.6785      0.00000
     18       7.9199      0.00000

 k-point   280 :       0.2143    0.3571    0.4444
  band No.  band energies     occupation 
      1     -33.0325      2.00000
      2     -33.0293      2.00000
      3     -15.4247      2.00000
      4     -15.4076      2.00000
      5     -15.0979      2.00000
      6     -15.0501      2.00000
      7     -14.9392      2.00000
      8     -14.9226      2.00000
      9      -1.0449      2.00000
     10      -0.9013      2.00000
     11      -0.8004      2.00000
     12      -0.7274      2.00000
     13       3.3593      0.00000
     14       3.3858      0.00000
     15       6.0751      0.00000
     16       6.4080      0.00000
     17       7.6752      0.00000
     18       7.7198      0.00000

 k-point   281 :       0.2857    0.3571    0.4444
  band No.  band energies     occupation 
      1     -33.0308      2.00000
      2     -33.0295      2.00000
      3     -15.4144      2.00000
      4     -15.4077      2.00000
      5     -15.1227      2.00000
      6     -15.0714      2.00000
      7     -14.9294      2.00000
      8     -14.9228      2.00000
      9      -0.9103      2.00000
     10      -0.8102      2.00000
     11      -0.7824      2.00000
     12      -0.7641      2.00000
     13       3.1379      0.00000
     14       3.1456      0.00000
     15       6.3281      0.00000
     16       6.6849      0.00000
     17       7.2795      0.00000
     18       7.3081      0.00000

 k-point   282 :       0.0000    0.4286    0.4444
  band No.  band energies     occupation 
      1     -33.0362      2.00000
      2     -33.0303      2.00000
      3     -15.4432      2.00000
      4     -15.4109      2.00000
      5     -14.9973      2.00000
      6     -14.9939      2.00000
      7     -14.9595      2.00000
      8     -14.9581      2.00000
      9      -1.4236      2.00000
     10      -1.2297      2.00000
     11      -0.7084      2.00000
     12      -0.6291      2.00000
     13       4.0873      0.00000
     14       4.2596      0.00000
     15       5.6117      0.00000
     16       6.0471      0.00000
     17       7.1900      0.00000
     18       7.8056      0.00000

 k-point   283 :       0.0714    0.4286    0.4444
  band No.  band energies     occupation 
      1     -33.0348      2.00000
      2     -33.0298      2.00000
      3     -15.4465      2.00000
      4     -15.4175      2.00000
      5     -15.0288      2.00000
      6     -14.9886      2.00000
      7     -14.9708      2.00000
      8     -14.9403      2.00000
      9      -1.2304      2.00000
     10      -1.0978      2.00000
     11      -0.8222      2.00000
     12      -0.7305      2.00000
     13       3.9159      0.00000
     14       4.0431      0.00000
     15       5.7138      0.00000
     16       6.1340      0.00000
     17       7.4895      0.00000
     18       8.0874      0.00000

 k-point   284 :       0.1429    0.4286    0.4444
  band No.  band energies     occupation 
      1     -33.0335      2.00000
      2     -33.0295      2.00000
      3     -15.4385      2.00000
      4     -15.4146      2.00000
      5     -15.0661      2.00000
      6     -15.0215      2.00000
      7     -14.9521      2.00000
      8     -14.9282      2.00000
      9      -1.0314      2.00000
     10      -1.0092      2.00000
     11      -0.8514      2.00000
     12      -0.7884      2.00000
     13       3.6224      0.00000
     14       3.6868      0.00000
     15       5.8974      0.00000
     16       6.2614      0.00000
     17       7.9490      0.00000
     18       8.0744      0.00000

 k-point   285 :       0.0000    0.5000    0.4444
  band No.  band energies     occupation 
      1     -33.0348      2.00000
      2     -33.0298      2.00000
      3     -15.4525      2.00000
      4     -15.4225      2.00000
      5     -15.0005      2.00000
      6     -14.9937      2.00000
      7     -14.9620      2.00000
      8     -14.9599      2.00000
      9      -1.1439      2.00000
     10      -1.1416      2.00000
     11      -0.8648      2.00000
     12      -0.7825      2.00000
     13       4.0129      0.00000
     14       4.1805      0.00000
     15       5.6337      0.00000
     16       6.1095      0.00000
     17       7.4118      0.00000
     18       8.1663      0.00000


--------------------------------------------------------------------------------------------------------


 soft charge-density along one line, spin component           1
         0         1         2         3         4         5         6         7         8         9
 total charge-density along one line
 
 pseudopotential strength for first ion, spin component:           1
 -2.234  -3.830  -0.000   0.000  -0.000
 -3.830  -6.477  -0.000   0.000  -0.000
 -0.000  -0.000  -0.369   0.000   0.000
  0.000   0.000   0.000  -0.369  -0.000
 -0.000  -0.000   0.000  -0.000  -0.369
 total augmentation occupancy for first ion, spin component:           1
  2.508  -0.335   0.000   0.000  -0.000
 -0.335   0.049   0.000  -0.000  -0.000
  0.000   0.000   0.001   0.000   0.000
  0.000   0.000   0.000   0.001   0.000
 -0.000  -0.000   0.000   0.000   0.001


------------------------ aborting loop because EDIFF is reached ----------------------------------------


 


 total charge     
 
# of ion     s       p       d       tot
----------------------------------------
  1        0.546   0.002   0.000   0.548
  2        0.546   0.002   0.000   0.548
  3        0.503   0.001   0.000   0.504
  4        0.503   0.001   0.000   0.504
  5        2.009   5.782   0.217   8.008
  6        2.009   5.782   0.217   8.008
------------------------------------------------
tot        6.116  11.569   0.435  18.120
 
    CHARGE:  cpu time    0.1720: real time    0.1722
    FORLOC:  cpu time    0.0020: real time    0.0015
    FORNL :  cpu time    0.5939: real time    0.5965
    STRESS:  cpu time    2.3246: real time    2.3299
    FORCOR:  cpu time    0.0130: real time    0.0129
    FORHAR:  cpu time    0.0040: real time    0.0043
    MIXING:  cpu time    0.0010: real time    0.0006
    OFIELD:  cpu time    0.0000: real time    0.0006

  FORCE on cell =-STRESS in cart. coord.  units (eV):
  Direction    XX          YY          ZZ          XY          YZ          ZX
  --------------------------------------------------------------------------------------
  Alpha Z   109.84119   109.84119   109.84119
  Ewald    -444.19446  -435.85447  -444.19357    -0.00000    -0.00000    -0.00000
  Hartree   106.87739   104.84737   106.88153    -0.00000    -0.00000    -0.00000
  E(xc)     -86.76948   -87.08776   -86.76923    -0.00000    -0.00000     0.00001
  Local     103.58901   105.15911   103.57836     0.00000    -0.00000     0.00000
  n-local  -110.26322  -109.22878  -110.26394    -0.21198    -0.04547     1.45421
  augment     8.12875     7.77967     8.12900     0.00000     0.00000     0.00001
  Kinetic   312.87039   304.61230   312.87397     0.23541     0.08994    -2.12178
  Fock        0.00000     0.00000     0.00000     0.00000     0.00000     0.00000
  -------------------------------------------------------------------------------------
  Total       0.07958     0.06862     0.07731     0.00000     0.00000     0.00000
  in kB       1.51682     1.30797     1.47358     0.00000     0.00000     0.00000
  external pressure =        1.43 kB  Pullay stress =        0.00 kB


 VOLUME and BASIS-vectors are now :
 -----------------------------------------------------------------------------
  energy-cutoff  :      520.00
  volume of cell :       84.05
      direct lattice vectors                 reciprocal lattice vectors
     0.000000000  0.000000000  4.118621136     0.140176550  0.000000000  0.242799706
     3.566930430  0.000000000 -2.059310568     0.280353099  0.000000000  0.000000000
     0.000000000  5.721484120  0.000000000     0.000000000  0.174779826  0.000000000

  length of vectors
     4.118621136  4.118707650  5.721484120     0.280358988  0.280353099  0.174779826


 FORCES acting on ions
    electron-ion (+dipol)            ewald-force                    non-local-force                 convergence-correction
 -----------------------------------------------------------------------------------------------
   0.709E-03 -.188E-12 -.981E-09   -.148E-02 -.110E-14 0.187E-12   -.122E-03 0.678E-20 -.671E-17   0.676E-05 -.139E-11 -.742E-08
   -.709E-03 0.182E-12 0.981E-09   0.148E-02 0.880E-15 -.162E-11   0.122E-03 -.678E-20 0.389E-17   -.676E-05 0.140E-11 0.742E-08
   0.185E-13 -.768E-14 -.888E-12   -.439E-13 -.355E-14 0.248E-13   0.000E+00 0.000E+00 0.000E+00   0.277E-15 0.322E-14 -.267E-14
   0.757E-14 -.126E-14 0.887E-12   -.440E-13 -.355E-14 0.257E-13   0.000E+00 0.000E+00 0.000E+00   0.563E-15 -.327E-14 0.272E-14
   0.837E-02 0.220E-11 0.120E-08   -.865E-02 -.660E-14 -.289E-11   0.656E-05 0.271E-19 0.115E-16   -.107E-03 -.359E-13 -.670E-07
   -.837E-02 0.499E-11 -.120E-08   0.865E-02 0.137E-13 0.428E-11   -.656E-05 -.271E-19 0.290E-17   0.107E-03 -.487E-13 0.670E-07
 -----------------------------------------------------------------------------------------------
   0.235E-11 0.717E-11 -.891E-12   0.862E-15 -.221E-15 0.708E-15   0.000E+00 0.000E+00 0.116E-16   -.132E-13 -.730E-13 0.133E-13
 
 
 POSITION                                       TOTAL-FORCE (eV/Angst)
 -----------------------------------------------------------------------------------
      2.97282      1.43037      1.02966        -0.000891     -0.000000      0.000000
      0.59411      4.29111      1.02966         0.000891      0.000000      0.000000
      1.78347      0.00000     -1.02966         0.000000      0.000000     -0.000000
      1.78347      2.86074     -1.02966         0.000000      0.000000      0.000000
      0.59477      1.43037      1.02966        -0.000373      0.000000      0.000000
      2.97216      4.29111      1.02966         0.000373      0.000000     -0.000000
 -----------------------------------------------------------------------------------
    total drift:                                0.000000      0.000000     -0.000000


--------------------------------------------------------------------------------------------------------



  FREE ENERGIE OF THE ION-ELECTRON SYSTEM (eV)
  ---------------------------------------------------
  free  energy   TOTEN  =       -19.78664777 eV

  energy  without entropy=      -19.78664777  energy(sigma->0) =      -19.78664777
 


--------------------------------------------------------------------------------------------------------


    POTLOK:  cpu time    0.0580: real time    0.0586


--------------------------------------------------------------------------------------------------------


     LOOP+:  cpu time   46.1340: real time   46.4354
    4ORBIT:  cpu time    0.0000: real time    0.0000
 


 total charge     
 
# of ion     s       p       d       tot
----------------------------------------
  1        0.546   0.002   0.000   0.548
  2        0.546   0.002   0.000   0.548
  3        0.503   0.001   0.000   0.504
  4        0.503   0.001   0.000   0.504
  5        2.009   5.782   0.217   8.008
  6        2.009   5.782   0.217   8.008
------------------------------------------------
tot        6.116  11.569   0.435  18.120
 

 total amount of memory used by VASP on root node    90123. kBytes
========================================================================

   base      :      30000. kBytes
   nonl-proj :      47333. kBytes
   fftplans  :       3008. kBytes
   grid      :       1543. kBytes
   one-center:         31. kBytes
   wavefun   :       8208. kBytes
 
  
  
 General timing and accounting informations for this job:
 ========================================================
  
                  Total CPU time used (sec):       59.302
                            User time (sec):       50.189
                          System time (sec):        9.113
                         Elapsed time (sec):       59.872
  
                   Maximum memory used (kb):      167148.
                   Average memory used (kb):           0.
  
                          Minor page faults:       144149
                          Major page faults:            1
                 Voluntary context switches:         2442
