 vasp.5.4.1 24Jun15 (build Nov 23 2015 09:58:10) complex                        
  
 executed on             LinuxIFC date 2020.06.19  03:46:32
 running on   24 total cores
 distrk:  each k-point on   24 cores,    1 groups
 distr:  one band on NCORES_PER_BAND=   4 cores,    6 groups


--------------------------------------------------------------------------------------------------------


 INCAR:
 POTCAR:    PAW_PBE Cl 06Sep2000                  
 POTCAR:    PAW_PBE O 08Apr2002                   
 POTCAR:    PAW_PBE S 06Sep2000                   
 POTCAR:    PAW_PBE Cl 06Sep2000                  
   VRHFIN =Cl: s2p5                                                             
   LEXCH  = PE                                                                  
   EATOM  =   409.7259 eV,   30.1140 Ry                                         
                                                                                
   TITEL  = PAW_PBE Cl 06Sep2000                                                
   LULTRA =        F    use ultrasoft PP ?                                      
   IUNSCR =        1    unscreen: 0-lin 1-nonlin 2-no                           
   RPACOR =    1.500    partial core radius                                     
   POMASS =   35.453; ZVAL   =    7.000    mass and valenz                      
   RCORE  =    1.900    outmost cutoff radius                                   
   RWIGS  =    2.100; RWIGS  =    1.111    wigner-seitz radius (au A)           
   ENMAX  =  262.472; ENMIN  =  196.854 eV                                      
   ICORE  =        2    local potential                                         
   LCOR   =        T    correct aug charges                                     
   LPAW   =        T    paw PP                                                  
   EAUG   =  356.192                                                            
   DEXC   =    0.000                                                            
   RMAX   =    1.945    core radius for proj-oper                               
   RAUG   =    1.300    factor for augmentation sphere                          
   RDEP   =    2.020    radius for radial grids                                 
   RDEPT  =    1.678    core radius for aug-charge                              
                                                                                
   Atomic configuration                                                         
    6 entries                                                                   
     n  l   j            E        occ.                                          
     1  0  0.50     -2751.1850   2.0000                                         
     2  0  0.50      -252.6861   2.0000                                         
     2  1  1.50      -191.6157   6.0000                                         
     3  0  0.50       -20.6916   2.0000                                         
     3  1  0.50        -8.5949   5.0000                                         
     3  2  1.50        -8.1635   0.0000                                         
   Description                                                                  
     l       E           TYP  RCUT    TYP  RCUT                                 
     0    -20.6915656     23  1.900                                             
     0    -22.0521482     23  1.900                                             
     1     -8.5948577     23  1.900                                             
     1     -5.3847331     23  1.900                                             
     2     -8.1634956     23  1.900                                             
  local pseudopotential read in
  partial core-charges read in
  partial kinetic energy density read in
  atomic valenz-charges read in
  non local Contribution for L=           0  read in
    real space projection operators read in
  non local Contribution for L=           0  read in
    real space projection operators read in
  non local Contribution for L=           1  read in
    real space projection operators read in
  non local Contribution for L=           1  read in
    real space projection operators read in
    PAW grid and wavefunctions read in
 
   number of l-projection  operators is LMAX  =           4
   number of lm-projection operators is LMMAX =           8
 
 POTCAR:    PAW_PBE O 08Apr2002                   
   VRHFIN =O: s2p4                                                              
   LEXCH  = PE                                                                  
   EATOM  =   432.3788 eV,   31.7789 Ry                                         
                                                                                
   TITEL  = PAW_PBE O 08Apr2002                                                 
   LULTRA =        F    use ultrasoft PP ?                                      
   IUNSCR =        1    unscreen: 0-lin 1-nonlin 2-no                           
   RPACOR =    1.200    partial core radius                                     
   POMASS =   16.000; ZVAL   =    6.000    mass and valenz                      
   RCORE  =    1.520    outmost cutoff radius                                   
   RWIGS  =    1.550; RWIGS  =    0.820    wigner-seitz radius (au A)           
   ENMAX  =  400.000; ENMIN  =  300.000 eV                                      
   ICORE  =        2    local potential                                         
   LCOR   =        T    correct aug charges                                     
   LPAW   =        T    paw PP                                                  
   EAUG   =  605.392                                                            
   DEXC   =    0.000                                                            
   RMAX   =    1.553    core radius for proj-oper                               
   RAUG   =    1.300    factor for augmentation sphere                          
   RDEP   =    1.550    radius for radial grids                                 
   RDEPT  =    1.329    core radius for aug-charge                              
                                                                                
   Atomic configuration                                                         
    4 entries                                                                   
     n  l   j            E        occ.                                          
     1  0  0.50      -514.6923   2.0000                                         
     2  0  0.50       -23.9615   2.0000                                         
     2  1  0.50        -9.0305   4.0000                                         
     3  2  1.50        -9.5241   0.0000                                         
   Description                                                                  
     l       E           TYP  RCUT    TYP  RCUT                                 
     0    -23.9615318     23  1.200                                             
     0     -9.5240782     23  1.200                                             
     1     -9.0304911     23  1.520                                             
     1      8.1634956     23  1.520                                             
     2     -9.5240782      7  1.500                                             
  local pseudopotential read in
  partial core-charges read in
  partial kinetic energy density read in
  kinetic energy density of atom read in
  atomic valenz-charges read in
  non local Contribution for L=           0  read in
    real space projection operators read in
  non local Contribution for L=           0  read in
    real space projection operators read in
  non local Contribution for L=           1  read in
    real space projection operators read in
  non local Contribution for L=           1  read in
    real space projection operators read in
    PAW grid and wavefunctions read in
 
   number of l-projection  operators is LMAX  =           4
   number of lm-projection operators is LMMAX =           8
 
 POTCAR:    PAW_PBE S 06Sep2000                   
   VRHFIN =S : s2p4                                                             
   LEXCH  = PE                                                                  
   EATOM  =   276.8230 eV,   20.3459 Ry                                         
                                                                                
   TITEL  = PAW_PBE S 06Sep2000                                                 
   LULTRA =        F    use ultrasoft PP ?                                      
   IUNSCR =        1    unscreen: 0-lin 1-nonlin 2-no                           
   RPACOR =    1.500    partial core radius                                     
   POMASS =   32.066; ZVAL   =    6.000    mass and valenz                      
   RCORE  =    1.900    outmost cutoff radius                                   
   RWIGS  =    2.200; RWIGS  =    1.164    wigner-seitz radius (au A)           
   ENMAX  =  258.689; ENMIN  =  194.016 eV                                      
   ICORE  =        2    local potential                                         
   LCOR   =        T    correct aug charges                                     
   LPAW   =        T    paw PP                                                  
   EAUG   =  335.092                                                            
   DEXC   =    0.000                                                            
   RMAX   =    1.942    core radius for proj-oper                               
   RAUG   =    1.300    factor for augmentation sphere                          
   RDEP   =    1.954    radius for radial grids                                 
   RDEPT  =    1.744    core radius for aug-charge                              
                                                                                
   Atomic configuration                                                         
    6 entries                                                                   
     n  l   j            E        occ.                                          
     1  0  0.50     -2405.8406   2.0000                                         
     2  0  0.50      -211.7007   2.0000                                         
     2  1  1.50      -156.4958   6.0000                                         
     3  0  0.50       -17.2562   2.0000                                         
     3  1  0.50        -7.0085   4.0000                                         
     3  2  1.50        -6.8029   0.0000                                         
   Description                                                                  
     l       E           TYP  RCUT    TYP  RCUT                                 
     0    -17.2561641     23  1.900                                             
     0    -15.8743224     23  1.900                                             
     1     -7.0085400     23  1.900                                             
     1     -2.7779785     23  1.900                                             
     2     -6.8029130     23  1.900                                             
  local pseudopotential read in
  partial core-charges read in
  partial kinetic energy density read in
  atomic valenz-charges read in
  non local Contribution for L=           0  read in
    real space projection operators read in
  non local Contribution for L=           0  read in
    real space projection operators read in
  non local Contribution for L=           1  read in
    real space projection operators read in
  non local Contribution for L=           1  read in
    real space projection operators read in
    PAW grid and wavefunctions read in
 
   number of l-projection  operators is LMAX  =           4
   number of lm-projection operators is LMMAX =           8
 
  PAW_PBE Cl 06Sep2000                  :
 energy of atom  1       EATOM= -409.7259
 kinetic energy error for atom=    0.0023 (will be added to EATOM!!)
  PAW_PBE O 08Apr2002                   :
 energy of atom  2       EATOM= -432.3788
 kinetic energy error for atom=    0.0208 (will be added to EATOM!!)
  PAW_PBE S 06Sep2000                   :
 energy of atom  3       EATOM= -276.8230
 kinetic energy error for atom=    0.0016 (will be added to EATOM!!)
 
 
 POSCAR: Cl8 O4 S4                               
  positions in direct lattice
  velocities in cartesian coordinates
 exchange correlation table for  LEXCH =        8
   RHO(1)=    0.500       N(1)  =     2000
   RHO(2)=  100.500       N(2)  =     4000
 


--------------------------------------------------------------------------------------------------------


 ion  position               nearest neighbor table
   1  0.133  0.202  0.763-  13 2.10
   2  0.133  0.298  0.263-  14 2.10
   3  0.256  0.703  0.101-  14 2.11
   4  0.256  0.797  0.601-  13 2.11
   5  0.744  0.203  0.399-  16 2.11
   6  0.744  0.297  0.899-  15 2.11
   7  0.867  0.702  0.737-  15 2.10
   8  0.867  0.798  0.237-  16 2.10
   9  0.397  0.211  0.638-  13 1.45
  10  0.397  0.289  0.138-  14 1.45
  11  0.603  0.711  0.862-  15 1.45
  12  0.603  0.789  0.362-  16 1.45
  13  0.330  0.069  0.740-   9 1.45   1 2.10   4 2.11
  14  0.330  0.431  0.240-  10 1.45   2 2.10   3 2.11
  15  0.670  0.569  0.760-  11 1.45   7 2.10   6 2.11
  16  0.670  0.931  0.260-  12 1.45   8 2.10   5 2.11
 
  LATTYP: Found a simple monoclinic cell.
 ALAT       =    11.7467728209
 B/A-ratio  =     0.5287260765
 C/A-ratio  =     1.5346239399
 COS(beta)  =    -0.9262811007
  
  Lattice vectors:
  
 A1 = (  -8.2369446392,   0.0000000000,  -8.3749277439)
 A2 = (   0.0000000000,  -6.2108251051,   0.0000000000)
 A3 = (   6.8655616616,   0.0000000000,  16.6683059100)


Analysis of symmetry for initial positions (statically):
=====================================================================
 Subroutine PRICEL returns:
 Original cell was already a primitive cell.
 

 Routine SETGRP: Setting up the symmetry group for a 
 simple monoclinic supercell.


 Subroutine GETGRP returns: Found  4 space group operations
 (whereof  2 operations were pure point group operations)
 out of a pool of  4 trial point group operations.


The static configuration has the point symmetry S_2 .
 The point group associated with its full space group is C_2h.


Analysis of symmetry for dynamics (positions and initial velocities):
=====================================================================
 Subroutine PRICEL returns:
 Original cell was already a primitive cell.
 

 Routine SETGRP: Setting up the symmetry group for a 
 simple monoclinic supercell.


 Subroutine GETGRP returns: Found  4 space group operations
 (whereof  2 operations were pure point group operations)
 out of a pool of  4 trial point group operations.


The dynamic configuration has the point symmetry S_2 .
 The point group associated with its full space group is C_2h.
 
 
 KPOINTS: K-Mesh                                  

Automatic generation of k-mesh.
Space group operators:
 irot       det(A)        alpha          n_x          n_y          n_z        tau_x        tau_y        tau_z
    1     1.000000     0.000000     1.000000     0.000000     0.000000     0.000000     0.000000     0.000000
    2    -1.000000     0.000000     1.000000     0.000000     0.000000     0.000000     0.000000     0.000000
    3     1.000000   180.000000     0.000000     1.000000     0.000000     0.000000    -0.500000     0.500000
    4    -1.000000   180.000000     0.000000     1.000000     0.000000    -0.000000    -0.500000     0.500000
 
 Subroutine IBZKPT returns following result:
 ===========================================
 
 Found     80 irreducible k-points:
 
 Following reciprocal coordinates:
            Coordinates               Weight
  0.000000  0.000000  0.000000      1.000000
  0.200000  0.000000  0.000000      2.000000
  0.400000  0.000000  0.000000      2.000000
  0.000000  0.125000  0.000000      2.000000
  0.200000  0.125000  0.000000      4.000000
  0.400000  0.125000  0.000000      4.000000
  0.000000  0.250000  0.000000      2.000000
  0.200000  0.250000  0.000000      4.000000
  0.400000  0.250000  0.000000      4.000000
  0.000000  0.375000  0.000000      2.000000
  0.200000  0.375000  0.000000      4.000000
  0.400000  0.375000  0.000000      4.000000
  0.000000  0.500000  0.000000      1.000000
  0.200000  0.500000  0.000000      2.000000
  0.400000  0.500000  0.000000      2.000000
  0.000000  0.000000  0.166667      2.000000
  0.200000  0.000000  0.166667      2.000000
  0.400000  0.000000  0.166667      2.000000
 -0.400000  0.000000  0.166667      2.000000
 -0.200000  0.000000  0.166667      2.000000
  0.000000  0.125000  0.166667      4.000000
  0.200000  0.125000  0.166667      4.000000
  0.400000  0.125000  0.166667      4.000000
 -0.400000  0.125000  0.166667      4.000000
 -0.200000  0.125000  0.166667      4.000000
  0.000000  0.250000  0.166667      4.000000
  0.200000  0.250000  0.166667      4.000000
  0.400000  0.250000  0.166667      4.000000
 -0.400000  0.250000  0.166667      4.000000
 -0.200000  0.250000  0.166667      4.000000
  0.000000  0.375000  0.166667      4.000000
  0.200000  0.375000  0.166667      4.000000
  0.400000  0.375000  0.166667      4.000000
 -0.400000  0.375000  0.166667      4.000000
 -0.200000  0.375000  0.166667      4.000000
  0.000000  0.500000  0.166667      2.000000
  0.200000  0.500000  0.166667      2.000000
  0.400000  0.500000  0.166667      2.000000
 -0.400000  0.500000  0.166667      2.000000
 -0.200000  0.500000  0.166667      2.000000
  0.000000  0.000000  0.333333      2.000000
  0.200000  0.000000  0.333333      2.000000
  0.400000  0.000000  0.333333      2.000000
 -0.400000  0.000000  0.333333      2.000000
 -0.200000  0.000000  0.333333      2.000000
  0.000000  0.125000  0.333333      4.000000
  0.200000  0.125000  0.333333      4.000000
  0.400000  0.125000  0.333333      4.000000
 -0.400000  0.125000  0.333333      4.000000
 -0.200000  0.125000  0.333333      4.000000
  0.000000  0.250000  0.333333      4.000000
  0.200000  0.250000  0.333333      4.000000
  0.400000  0.250000  0.333333      4.000000
 -0.400000  0.250000  0.333333      4.000000
 -0.200000  0.250000  0.333333      4.000000
  0.000000  0.375000  0.333333      4.000000
  0.200000  0.375000  0.333333      4.000000
  0.400000  0.375000  0.333333      4.000000
 -0.400000  0.375000  0.333333      4.000000
 -0.200000  0.375000  0.333333      4.000000
  0.000000  0.500000  0.333333      2.000000
  0.200000  0.500000  0.333333      2.000000
  0.400000  0.500000  0.333333      2.000000
 -0.400000  0.500000  0.333333      2.000000
 -0.200000  0.500000  0.333333      2.000000
  0.000000  0.000000  0.500000      1.000000
  0.200000  0.000000  0.500000      2.000000
  0.400000  0.000000  0.500000      2.000000
  0.000000  0.125000  0.500000      2.000000
  0.200000  0.125000  0.500000      4.000000
  0.400000  0.125000  0.500000      4.000000
  0.000000  0.250000  0.500000      2.000000
  0.200000  0.250000  0.500000      4.000000
  0.400000  0.250000  0.500000      4.000000
  0.000000  0.375000  0.500000      2.000000
  0.200000  0.375000  0.500000      4.000000
  0.400000  0.375000  0.500000      4.000000
  0.000000  0.500000  0.500000      1.000000
  0.200000  0.500000  0.500000      2.000000
  0.400000  0.500000  0.500000      2.000000
 
 Following cartesian coordinates:
            Coordinates               Weight
  0.000000  0.000000  0.000000      1.000000
  0.020786  0.000000  0.003437      2.000000
  0.041572  0.000000  0.006874      2.000000
  0.000000  0.020126  0.000000      2.000000
  0.020786  0.020126  0.003437      4.000000
  0.041572  0.020126  0.006874      4.000000
  0.000000  0.040252  0.000000      2.000000
  0.020786  0.040252  0.003437      4.000000
  0.041572  0.040252  0.006874      4.000000
  0.000000  0.060378  0.000000      2.000000
  0.020786  0.060378  0.003437      4.000000
  0.041572  0.060378  0.006874      4.000000
  0.000000  0.080505  0.000000      1.000000
  0.020786  0.080505  0.003437      2.000000
  0.041572  0.080505  0.006874      2.000000
 -0.000170  0.000000  0.020068      2.000000
  0.020616  0.000000  0.023505      2.000000
  0.041402  0.000000  0.026943      2.000000
 -0.041743  0.000000  0.013194      2.000000
 -0.020956  0.000000  0.016631      2.000000
 -0.000170  0.020126  0.020068      4.000000
  0.020616  0.020126  0.023505      4.000000
  0.041402  0.020126  0.026943      4.000000
 -0.041743  0.020126  0.013194      4.000000
 -0.020956  0.020126  0.016631      4.000000
 -0.000170  0.040252  0.020068      4.000000
  0.020616  0.040252  0.023505      4.000000
  0.041402  0.040252  0.026943      4.000000
 -0.041743  0.040252  0.013194      4.000000
 -0.020956  0.040252  0.016631      4.000000
 -0.000170  0.060378  0.020068      4.000000
  0.020616  0.060378  0.023505      4.000000
  0.041402  0.060378  0.026943      4.000000
 -0.041743  0.060378  0.013194      4.000000
 -0.020956  0.060378  0.016631      4.000000
 -0.000170  0.080505  0.020068      2.000000
  0.020616  0.080505  0.023505      2.000000
  0.041402  0.080505  0.026943      2.000000
 -0.041743  0.080505  0.013194      2.000000
 -0.020956  0.080505  0.016631      2.000000
 -0.000341  0.000000  0.040136      2.000000
  0.020445  0.000000  0.043574      2.000000
  0.041232  0.000000  0.047011      2.000000
 -0.041913  0.000000  0.033262      2.000000
 -0.021127  0.000000  0.036699      2.000000
 -0.000341  0.020126  0.040136      4.000000
  0.020445  0.020126  0.043574      4.000000
  0.041232  0.020126  0.047011      4.000000
 -0.041913  0.020126  0.033262      4.000000
 -0.021127  0.020126  0.036699      4.000000
 -0.000341  0.040252  0.040136      4.000000
  0.020445  0.040252  0.043574      4.000000
  0.041232  0.040252  0.047011      4.000000
 -0.041913  0.040252  0.033262      4.000000
 -0.021127  0.040252  0.036699      4.000000
 -0.000341  0.060378  0.040136      4.000000
  0.020445  0.060378  0.043574      4.000000
  0.041232  0.060378  0.047011      4.000000
 -0.041913  0.060378  0.033262      4.000000
 -0.021127  0.060378  0.036699      4.000000
 -0.000341  0.080505  0.040136      2.000000
  0.020445  0.080505  0.043574      2.000000
  0.041232  0.080505  0.047011      2.000000
 -0.041913  0.080505  0.033262      2.000000
 -0.021127  0.080505  0.036699      2.000000
 -0.000511  0.000000  0.060205      1.000000
  0.020275  0.000000  0.063642      2.000000
  0.041061  0.000000  0.067079      2.000000
 -0.000511  0.020126  0.060205      2.000000
  0.020275  0.020126  0.063642      4.000000
  0.041061  0.020126  0.067079      4.000000
 -0.000511  0.040252  0.060205      2.000000
  0.020275  0.040252  0.063642      4.000000
  0.041061  0.040252  0.067079      4.000000
 -0.000511  0.060378  0.060205      2.000000
  0.020275  0.060378  0.063642      4.000000
  0.041061  0.060378  0.067079      4.000000
 -0.000511  0.080505  0.060205      1.000000
  0.020275  0.080505  0.063642      2.000000
  0.041061  0.080505  0.067079      2.000000
 


--------------------------------------------------------------------------------------------------------




 Dimension of arrays:
   k-points           NKPTS =     80   k-points in BZ     NKDIM =     80   number of bands    NBANDS=     66
   number of dos      NEDOS =    301   number of ions     NIONS =     16
   non local maximal  LDIM  =      4   non local SUM 2l+1 LMDIM =      8
   total plane-waves  NPLWV = 221184
   max r-space proj   IRMAX =      1   max aug-charges    IRDMAX= 112669
   dimension x,y,z NGX =    72 NGY =   48 NGZ =   64
   dimension x,y,z NGXF=   144 NGYF=   96 NGZF=  128
   support grid    NGXF=   288 NGYF=  192 NGZF=  256
   ions per type =               8   4   4
 NGX,Y,Z   is equivalent  to a cutoff of  12.46, 12.85, 12.66 a.u.
 NGXF,Y,Z  is equivalent  to a cutoff of  24.91, 25.70, 25.31 a.u.


 I would recommend the setting:
   dimension x,y,z NGX =    71 NGY =   46 NGZ =   63
 SYSTEM =  matgen-scf                              
 POSCAR =  Cl8 O4 S4                               

 Startparameter for this run:
   NWRITE =      2    write-flag & timer
   PREC   = accura    normal or accurate (medium, high low for compatibility)
   ISTART =      0    job   : 0-new  1-cont  2-samecut
   ICHARG =      2    charge: 1-file 2-atom 10-const
   ISPIN  =      1    spin polarized calculation?
   LNONCOLLINEAR =      F non collinear calculations
   LSORBIT =      F    spin-orbit coupling
   INIWAV =      1    electr: 0-lowe 1-rand  2-diag
   LASPH  =      F    aspherical Exc in radial PAW
   METAGGA=      F    non-selfconsistent MetaGGA calc.

 Electronic Relaxation 1
   ENCUT  =  520.0 eV  38.22 Ry    6.18 a.u.  17.87 11.55 15.63*2*pi/ulx,y,z
   ENINI  =  520.0     initial cutoff
   ENAUG  =  605.4 eV  augmentation charge cutoff
   NELM   =    140;   NELMIN=  6; NELMDL= -5     # of ELM steps 
   EDIFF  = 0.1E-03   stopping-criterion for ELM
   LREAL  =      F    real-space projection
   NLSPLINE    = F    spline interpolate recip. space projectors
   LCOMPAT=      F    compatible to vasp.4.4
   GGA_COMPAT  = T    GGA compatible to vasp.4.4-vasp.4.6
   LMAXPAW     = -100 max onsite density
   LMAXMIX     =    2 max onsite mixed and CHGCAR
   VOSKOWN=      0    Vosko Wilk Nusair interpolation
   ROPT   =    0.00000   0.00000   0.00000
 Ionic relaxation
   EDIFFG = -.1E-01   stopping-criterion for IOM
   NSW    =      0    number of steps for IOM
   NBLOCK =      1;   KBLOCK =      1    inner block; outer block 
   IBRION =     -1    ionic relax: 0-MD 1-quasi-New 2-CG
   NFREE  =      0    steps in history (QN), initial steepest desc. (CG)
   ISIF   =      2    stress and relaxation
   IWAVPR =     10    prediction:  0-non 1-charg 2-wave 3-comb
   ISYM   =      2    0-nonsym 1-usesym 2-fastsym
   LCORR  =      T    Harris-Foulkes like correction to forces

   POTIM  = 0.0500    time-step for ionic-motion
   TEIN   =    0.0    initial temperature
   TEBEG  =    0.0;   TEEND  =   0.0 temperature during run
   SMASS  =  -3.00    Nose mass-parameter (am)
   estimated Nose-frequenzy (Omega)   =  0.10E-29 period in steps =****** mass=  -0.211E-26a.u.
   SCALEE = 1.0000    scale energy and forces
   NPACO  =    256;   APACO  = 16.0  distance and # of slots for P.C.
   PSTRESS=    0.0 pullay stress

  Mass of Ions in am
   POMASS =  35.45 16.00 32.07
  Ionic Valenz
   ZVAL   =   7.00  6.00  6.00
  Atomic Wigner-Seitz radii
   RWIGS  =  -1.00 -1.00 -1.00
  virtual crystal weights 
   VCA    =   1.00  1.00  1.00
   NELECT =     104.0000    total number of electrons
   NUPDOWN=      -1.0000    fix difference up-down

 DOS related values:
   EMIN   =  10.00;   EMAX   =-10.00  energy-range for DOS
   EFERMI =   0.00
   ISMEAR =     0;   SIGMA  =   0.05  broadening in eV -4-tet -1-fermi 0-gaus

 Electronic relaxation 2 (details)
   IALGO  =     38    algorithm
   LDIAG  =      T    sub-space diagonalisation (order eigenvalues)
   LSUBROT=      F    optimize rotation matrix (better conditioning)
   TURBO    =      0    0=normal 1=particle mesh
   IRESTART =      0    0=no restart 2=restart with 2 vectors
   NREBOOT  =      0    no. of reboots
   NMIN     =      0    reboot dimension
   EREF     =   0.00    reference energy to select bands
   IMIX   =      4    mixing-type and parameters
     AMIX     =   0.10;   BMIX     =  1.20
     AMIX_MAG =   0.40;   BMIX_MAG =  1.20
     AMIN     =   0.10
     WC   =   100.;   INIMIX=   1;  MIXPRE=   1;  MAXMIX= -45

 Intra band minimization:
   WEIMIN = 0.0000     energy-eigenvalue tresh-hold
   EBREAK =  0.38E-06  absolut break condition
   DEPER  =   0.30     relativ break condition  

   TIME   =   0.40     timestep for ELM

  volume/ion in A,a.u.               =      30.98       209.03
  Fermi-wavevector in a.u.,A,eV,Ry     =   0.972837  1.838395 12.876713  0.946412
  Thomas-Fermi vector in A             =   2.103168
 
 Write flags
   LWAVE  =      F    write WAVECAR
   LCHARG =      T    write CHGCAR
   LVTOT  =      F    write LOCPOT, total local potential
   LVHAR  =      F    write LOCPOT, Hartree potential only
   LELF   =      F    write electronic localiz. function (ELF)
   LORBIT =     11    0 simple, 1 ext, 2 COOP (PROOUT)


 Dipole corrections
   LMONO  =      F    monopole corrections only (constant potential shift)
   LDIPOL =      F    correct potential (dipole corrections)
   IDIPOL =      0    1-x, 2-y, 3-z, 4-all directions 
   EPSILON=  1.0000000 bulk dielectric constant

 Exchange correlation treatment:
   GGA     =    --    GGA type
   LEXCH   =     8    internal setting for exchange type
   VOSKOWN=      0    Vosko Wilk Nusair interpolation
   LHFCALC =     F    Hartree Fock is set to
   LHFONE  =     F    Hartree Fock one center treatment
   AEXX    =    0.0000 exact exchange contribution

 Linear response parameters
   LEPSILON=     F    determine dielectric tensor
   LRPA    =     F    only Hartree local field effects (RPA)
   LNABLA  =     F    use nabla operator in PAW spheres
   LVEL    =     F    velocity operator in full k-point grid
   LINTERFAST=   F  fast interpolation
   KINTER  =     0    interpolate to denser k-point grid
   CSHIFT  =0.1000    complex shift for real part using Kramers Kronig
   OMEGAMAX=  -1.0    maximum frequency
   DEG_THRESHOLD= 0.2000000E-02 threshold for treating states as degnerate
   RTIME   =    0.100 relaxation time in fs

 Orbital magnetization related:
   ORBITALMAG=     F  switch on orbital magnetization
   LCHIMAG   =     F  perturbation theory with respect to B field
   DQ        =  0.001000  dq finite difference perturbation B field



--------------------------------------------------------------------------------------------------------


 Static calculation
 charge density and potential will be updated during run
 non-spin polarized calculation
 Variant of blocked Davidson
 Davidson routine will perform the subspace rotation
 perform sub-space diagonalisation
    after iterative eigenvector-optimisation
 modified Broyden-mixing scheme, WC =      100.0
 initial mixing is a Kerker type mixing with AMIX =  0.1000 and BMIX =      1.2000
 Hartree-type preconditioning will be used
 using additional bands           14
 reciprocal scheme for non local part
 use partial core corrections
 calculate Harris-corrections to forces 
   (improved forces if not selfconsistent)
 use gradient corrections 
 use of overlap-Matrix (Vanderbilt PP)
 Gauss-broadening in eV      SIGMA  =   0.05


--------------------------------------------------------------------------------------------------------


  energy-cutoff  :      520.00
  volume of cell :      495.61
      direct lattice vectors                 reciprocal lattice vectors
     9.608327617  0.000000000  0.081549578     0.103930522  0.000000000  0.017185825
     0.000000000  6.210825105  0.000000000     0.000000000  0.161009203  0.000000000
    -1.371382978  0.000000000  8.293378166    -0.001021959  0.000000000  0.120409136

  length of vectors
     9.608673682  6.210825105  8.405998613     0.105341853  0.161009203  0.120413473


 
 k-points in units of 2pi/SCALE and weight: K-Mesh                                  
   0.00000000  0.00000000  0.00000000       0.004
   0.02078610  0.00000000  0.00343717       0.008
   0.04157221  0.00000000  0.00687433       0.008
   0.00000000  0.02012615  0.00000000       0.008
   0.02078610  0.02012615  0.00343717       0.017
   0.04157221  0.02012615  0.00687433       0.017
   0.00000000  0.04025230  0.00000000       0.008
   0.02078610  0.04025230  0.00343717       0.017
   0.04157221  0.04025230  0.00687433       0.017
   0.00000000  0.06037845  0.00000000       0.008
   0.02078610  0.06037845  0.00343717       0.017
   0.04157221  0.06037845  0.00687433       0.017
   0.00000000  0.08050460  0.00000000       0.004
   0.02078610  0.08050460  0.00343717       0.008
   0.04157221  0.08050460  0.00687433       0.008
  -0.00017033  0.00000000  0.02006819       0.008
   0.02061578  0.00000000  0.02350535       0.008
   0.04140188  0.00000000  0.02694252       0.008
  -0.04174254  0.00000000  0.01319386       0.008
  -0.02095643  0.00000000  0.01663102       0.008
  -0.00017033  0.02012615  0.02006819       0.017
   0.02061578  0.02012615  0.02350535       0.017
   0.04140188  0.02012615  0.02694252       0.017
  -0.04174254  0.02012615  0.01319386       0.017
  -0.02095643  0.02012615  0.01663102       0.017
  -0.00017033  0.04025230  0.02006819       0.017
   0.02061578  0.04025230  0.02350535       0.017
   0.04140188  0.04025230  0.02694252       0.017
  -0.04174254  0.04025230  0.01319386       0.017
  -0.02095643  0.04025230  0.01663102       0.017
  -0.00017033  0.06037845  0.02006819       0.017
   0.02061578  0.06037845  0.02350535       0.017
   0.04140188  0.06037845  0.02694252       0.017
  -0.04174254  0.06037845  0.01319386       0.017
  -0.02095643  0.06037845  0.01663102       0.017
  -0.00017033  0.08050460  0.02006819       0.008
   0.02061578  0.08050460  0.02350535       0.008
   0.04140188  0.08050460  0.02694252       0.008
  -0.04174254  0.08050460  0.01319386       0.008
  -0.02095643  0.08050460  0.01663102       0.008
  -0.00034065  0.00000000  0.04013638       0.008
   0.02044545  0.00000000  0.04357354       0.008
   0.04123156  0.00000000  0.04701071       0.008
  -0.04191286  0.00000000  0.03326205       0.008
  -0.02112676  0.00000000  0.03669921       0.008
  -0.00034065  0.02012615  0.04013638       0.017
   0.02044545  0.02012615  0.04357354       0.017
   0.04123156  0.02012615  0.04701071       0.017
  -0.04191286  0.02012615  0.03326205       0.017
  -0.02112676  0.02012615  0.03669921       0.017
  -0.00034065  0.04025230  0.04013638       0.017
   0.02044545  0.04025230  0.04357354       0.017
   0.04123156  0.04025230  0.04701071       0.017
  -0.04191286  0.04025230  0.03326205       0.017
  -0.02112676  0.04025230  0.03669921       0.017
  -0.00034065  0.06037845  0.04013638       0.017
   0.02044545  0.06037845  0.04357354       0.017
   0.04123156  0.06037845  0.04701071       0.017
  -0.04191286  0.06037845  0.03326205       0.017
  -0.02112676  0.06037845  0.03669921       0.017
  -0.00034065  0.08050460  0.04013638       0.008
   0.02044545  0.08050460  0.04357354       0.008
   0.04123156  0.08050460  0.04701071       0.008
  -0.04191286  0.08050460  0.03326205       0.008
  -0.02112676  0.08050460  0.03669921       0.008
  -0.00051098  0.00000000  0.06020457       0.004
   0.02027513  0.00000000  0.06364173       0.008
   0.04106123  0.00000000  0.06707890       0.008
  -0.00051098  0.02012615  0.06020457       0.008
   0.02027513  0.02012615  0.06364173       0.017
   0.04106123  0.02012615  0.06707890       0.017
  -0.00051098  0.04025230  0.06020457       0.008
   0.02027513  0.04025230  0.06364173       0.017
   0.04106123  0.04025230  0.06707890       0.017
  -0.00051098  0.06037845  0.06020457       0.008
   0.02027513  0.06037845  0.06364173       0.017
   0.04106123  0.06037845  0.06707890       0.017
  -0.00051098  0.08050460  0.06020457       0.004
   0.02027513  0.08050460  0.06364173       0.008
   0.04106123  0.08050460  0.06707890       0.008
 
 k-points in reciprocal lattice and weights: K-Mesh                                  
   0.00000000  0.00000000  0.00000000       0.004
   0.20000000  0.00000000  0.00000000       0.008
   0.40000000  0.00000000  0.00000000       0.008
   0.00000000  0.12500000  0.00000000       0.008
   0.20000000  0.12500000  0.00000000       0.017
   0.40000000  0.12500000  0.00000000       0.017
   0.00000000  0.25000000  0.00000000       0.008
   0.20000000  0.25000000  0.00000000       0.017
   0.40000000  0.25000000  0.00000000       0.017
   0.00000000  0.37500000  0.00000000       0.008
   0.20000000  0.37500000  0.00000000       0.017
   0.40000000  0.37500000  0.00000000       0.017
   0.00000000  0.50000000  0.00000000       0.004
   0.20000000  0.50000000  0.00000000       0.008
   0.40000000  0.50000000  0.00000000       0.008
   0.00000000  0.00000000  0.16666667       0.008
   0.20000000  0.00000000  0.16666667       0.008
   0.40000000  0.00000000  0.16666667       0.008
  -0.40000000  0.00000000  0.16666667       0.008
  -0.20000000  0.00000000  0.16666667       0.008
   0.00000000  0.12500000  0.16666667       0.017
   0.20000000  0.12500000  0.16666667       0.017
   0.40000000  0.12500000  0.16666667       0.017
  -0.40000000  0.12500000  0.16666667       0.017
  -0.20000000  0.12500000  0.16666667       0.017
   0.00000000  0.25000000  0.16666667       0.017
   0.20000000  0.25000000  0.16666667       0.017
   0.40000000  0.25000000  0.16666667       0.017
  -0.40000000  0.25000000  0.16666667       0.017
  -0.20000000  0.25000000  0.16666667       0.017
   0.00000000  0.37500000  0.16666667       0.017
   0.20000000  0.37500000  0.16666667       0.017
   0.40000000  0.37500000  0.16666667       0.017
  -0.40000000  0.37500000  0.16666667       0.017
  -0.20000000  0.37500000  0.16666667       0.017
   0.00000000  0.50000000  0.16666667       0.008
   0.20000000  0.50000000  0.16666667       0.008
   0.40000000  0.50000000  0.16666667       0.008
  -0.40000000  0.50000000  0.16666667       0.008
  -0.20000000  0.50000000  0.16666667       0.008
   0.00000000  0.00000000  0.33333333       0.008
   0.20000000  0.00000000  0.33333333       0.008
   0.40000000  0.00000000  0.33333333       0.008
  -0.40000000  0.00000000  0.33333333       0.008
  -0.20000000  0.00000000  0.33333333       0.008
   0.00000000  0.12500000  0.33333333       0.017
   0.20000000  0.12500000  0.33333333       0.017
   0.40000000  0.12500000  0.33333333       0.017
  -0.40000000  0.12500000  0.33333333       0.017
  -0.20000000  0.12500000  0.33333333       0.017
   0.00000000  0.25000000  0.33333333       0.017
   0.20000000  0.25000000  0.33333333       0.017
   0.40000000  0.25000000  0.33333333       0.017
  -0.40000000  0.25000000  0.33333333       0.017
  -0.20000000  0.25000000  0.33333333       0.017
   0.00000000  0.37500000  0.33333333       0.017
   0.20000000  0.37500000  0.33333333       0.017
   0.40000000  0.37500000  0.33333333       0.017
  -0.40000000  0.37500000  0.33333333       0.017
  -0.20000000  0.37500000  0.33333333       0.017
   0.00000000  0.50000000  0.33333333       0.008
   0.20000000  0.50000000  0.33333333       0.008
   0.40000000  0.50000000  0.33333333       0.008
  -0.40000000  0.50000000  0.33333333       0.008
  -0.20000000  0.50000000  0.33333333       0.008
   0.00000000  0.00000000  0.50000000       0.004
   0.20000000  0.00000000  0.50000000       0.008
   0.40000000  0.00000000  0.50000000       0.008
   0.00000000  0.12500000  0.50000000       0.008
   0.20000000  0.12500000  0.50000000       0.017
   0.40000000  0.12500000  0.50000000       0.017
   0.00000000  0.25000000  0.50000000       0.008
   0.20000000  0.25000000  0.50000000       0.017
   0.40000000  0.25000000  0.50000000       0.017
   0.00000000  0.37500000  0.50000000       0.008
   0.20000000  0.37500000  0.50000000       0.017
   0.40000000  0.37500000  0.50000000       0.017
   0.00000000  0.50000000  0.50000000       0.004
   0.20000000  0.50000000  0.50000000       0.008
   0.40000000  0.50000000  0.50000000       0.008
 
 position of ions in fractional coordinates (direct lattice) 
   0.13277160  0.20208320  0.76278065
   0.13277160  0.29791680  0.26278065
   0.25625475  0.70320863  0.10144995
   0.25625475  0.79679137  0.60144995
   0.74374525  0.20320863  0.39855005
   0.74374525  0.29679137  0.89855005
   0.86722840  0.70208320  0.73721935
   0.86722840  0.79791680  0.23721935
   0.39707966  0.21144097  0.63763141
   0.39707966  0.28855903  0.13763141
   0.60292034  0.71144097  0.86236859
   0.60292034  0.78855903  0.36236859
   0.32985972  0.06903030  0.73967491
   0.32985972  0.43096970  0.23967491
   0.67014028  0.56903030  0.76032509
   0.67014028  0.93096970  0.26032509
 
 position of ions in cartesian coordinates  (Angst):
   0.22964861  1.25510342  6.33685584
   0.91534010  1.85030913  2.19016676
   2.32305283  4.36750583  0.86226030
   1.63736134  4.94873183  5.00894939
   6.59958330  1.26209328  3.36597836
   5.91389181  1.84331927  7.51266744
   7.32160454  4.36051598  6.18476099
   8.00729603  4.95572168  2.03807190
   2.94083463  1.31322289  5.32050007
   3.62652612  1.79218967  1.17381099
   4.61041852  4.41863544  7.20111676
   5.29611001  4.89760222  3.05442768
   2.15502269  0.42873514  6.16130367
   2.84071418  2.67667742  2.01461458
   5.39623046  3.53414769  6.36031316
   6.08192195  5.78208997  2.21362408
 


--------------------------------------------------------------------------------------------------------


 k-point  1 :   0.0000 0.0000 0.0000  plane waves:   13365
 k-point  2 :   0.2000 0.0000 0.0000  plane waves:   13358
 k-point  3 :   0.4000 0.0000 0.0000  plane waves:   13371
 k-point  4 :   0.0000 0.1250 0.0000  plane waves:   13369
 k-point  5 :   0.2000 0.1250 0.0000  plane waves:   13368
 k-point  6 :   0.4000 0.1250 0.0000  plane waves:   13362
 k-point  7 :   0.0000 0.2500 0.0000  plane waves:   13353
 k-point  8 :   0.2000 0.2500 0.0000  plane waves:   13356
 k-point  9 :   0.4000 0.2500 0.0000  plane waves:   13356
 k-point 10 :   0.0000 0.3750 0.0000  plane waves:   13333
 k-point 11 :   0.2000 0.3750 0.0000  plane waves:   13338
 k-point 12 :   0.4000 0.3750 0.0000  plane waves:   13341
 k-point 13 :   0.0000 0.5000 0.0000  plane waves:   13332
 k-point 14 :   0.2000 0.5000 0.0000  plane waves:   13322
 k-point 15 :   0.4000 0.5000 0.0000  plane waves:   13308
 k-point 16 :   0.0000 0.0000 0.1667  plane waves:   13354
 k-point 17 :   0.2000 0.0000 0.1667  plane waves:   13352
 k-point 18 :   0.4000 0.0000 0.1667  plane waves:   13366
 k-point 19 :  -0.4000 0.0000 0.1667  plane waves:   13351
 k-point 20 :  -0.2000 0.0000 0.1667  plane waves:   13354
 k-point 21 :   0.0000 0.1250 0.1667  plane waves:   13367
 k-point 22 :   0.2000 0.1250 0.1667  plane waves:   13348
 k-point 23 :   0.4000 0.1250 0.1667  plane waves:   13364
 k-point 24 :  -0.4000 0.1250 0.1667  plane waves:   13363
 k-point 25 :  -0.2000 0.1250 0.1667  plane waves:   13361
 k-point 26 :   0.0000 0.2500 0.1667  plane waves:   13347
 k-point 27 :   0.2000 0.2500 0.1667  plane waves:   13356
 k-point 28 :   0.4000 0.2500 0.1667  plane waves:   13354
 k-point 29 :  -0.4000 0.2500 0.1667  plane waves:   13347
 k-point 30 :  -0.2000 0.2500 0.1667  plane waves:   13347
 k-point 31 :   0.0000 0.3750 0.1667  plane waves:   13318
 k-point 32 :   0.2000 0.3750 0.1667  plane waves:   13336
 k-point 33 :   0.4000 0.3750 0.1667  plane waves:   13352
 k-point 34 :  -0.4000 0.3750 0.1667  plane waves:   13331
 k-point 35 :  -0.2000 0.3750 0.1667  plane waves:   13312
 k-point 36 :   0.0000 0.5000 0.1667  plane waves:   13338
 k-point 37 :   0.2000 0.5000 0.1667  plane waves:   13330
 k-point 38 :   0.4000 0.5000 0.1667  plane waves:   13336
 k-point 39 :  -0.4000 0.5000 0.1667  plane waves:   13336
 k-point 40 :  -0.2000 0.5000 0.1667  plane waves:   13316
 k-point 41 :   0.0000 0.0000 0.3333  plane waves:   13352
 k-point 42 :   0.2000 0.0000 0.3333  plane waves:   13355
 k-point 43 :   0.4000 0.0000 0.3333  plane waves:   13368
 k-point 44 :  -0.4000 0.0000 0.3333  plane waves:   13346
 k-point 45 :  -0.2000 0.0000 0.3333  plane waves:   13339
 k-point 46 :   0.0000 0.1250 0.3333  plane waves:   13344
 k-point 47 :   0.2000 0.1250 0.3333  plane waves:   13337
 k-point 48 :   0.4000 0.1250 0.3333  plane waves:   13358
 k-point 49 :  -0.4000 0.1250 0.3333  plane waves:   13352
 k-point 50 :  -0.2000 0.1250 0.3333  plane waves:   13328
 k-point 51 :   0.0000 0.2500 0.3333  plane waves:   13343
 k-point 52 :   0.2000 0.2500 0.3333  plane waves:   13340
 k-point 53 :   0.4000 0.2500 0.3333  plane waves:   13341
 k-point 54 :  -0.4000 0.2500 0.3333  plane waves:   13354
 k-point 55 :  -0.2000 0.2500 0.3333  plane waves:   13336
 k-point 56 :   0.0000 0.3750 0.3333  plane waves:   13324
 k-point 57 :   0.2000 0.3750 0.3333  plane waves:   13343
 k-point 58 :   0.4000 0.3750 0.3333  plane waves:   13353
 k-point 59 :  -0.4000 0.3750 0.3333  plane waves:   13332
 k-point 60 :  -0.2000 0.3750 0.3333  plane waves:   13336
 k-point 61 :   0.0000 0.5000 0.3333  plane waves:   13336
 k-point 62 :   0.2000 0.5000 0.3333  plane waves:   13352
 k-point 63 :   0.4000 0.5000 0.3333  plane waves:   13342
 k-point 64 :  -0.4000 0.5000 0.3333  plane waves:   13338
 k-point 65 :  -0.2000 0.5000 0.3333  plane waves:   13304
 k-point 66 :   0.0000 0.0000 0.5000  plane waves:   13342
 k-point 67 :   0.2000 0.0000 0.5000  plane waves:   13365
 k-point 68 :   0.4000 0.0000 0.5000  plane waves:   13340
 k-point 69 :   0.0000 0.1250 0.5000  plane waves:   13338
 k-point 70 :   0.2000 0.1250 0.5000  plane waves:   13351
 k-point 71 :   0.4000 0.1250 0.5000  plane waves:   13344
 k-point 72 :   0.0000 0.2500 0.5000  plane waves:   13342
 k-point 73 :   0.2000 0.2500 0.5000  plane waves:   13338
 k-point 74 :   0.4000 0.2500 0.5000  plane waves:   13349
 k-point 75 :   0.0000 0.3750 0.5000  plane waves:   13332
 k-point 76 :   0.2000 0.3750 0.5000  plane waves:   13333
 k-point 77 :   0.4000 0.3750 0.5000  plane waves:   13341
 k-point 78 :   0.0000 0.5000 0.5000  plane waves:   13308
 k-point 79 :   0.2000 0.5000 0.5000  plane waves:   13326
 k-point 80 :   0.4000 0.5000 0.5000  plane waves:   13344

 maximum and minimum number of plane-waves per node :      3379     3283

 maximum number of plane-waves:     13371
 maximum index in each direction: 
   IXMAX=   18   IYMAX=   11   IZMAX=   15
   IXMIN=  -18   IYMIN=  -12   IZMIN=  -16

 WARNING: aliasing errors must be expected set NGX to  74 to avoid them
 NGY is ok and might be reduce to  48
 NGZ is ok and might be reduce to  64
 aliasing errors are usually negligible using standard VASP settings
 and one can safely disregard these warnings

 parallel 3D FFT for wavefunctions:
    minimum data exchange during FFTs selected (reduces bandwidth)
 parallel 3D FFT for charge:
    minimum data exchange during FFTs selected (reduces bandwidth)


 total amount of memory used by VASP on root node   149404. kBytes
========================================================================

   base      :      30000. kBytes
   nonl-proj :      52282. kBytes
   fftplans  :      12465. kBytes
   grid      :       6999. kBytes
   one-center:         12. kBytes
   wavefun   :      47646. kBytes
 
     INWAV:  cpu time    0.0000: real time    0.0000
 Broyden mixing: mesh for mixing (old mesh)
   NGX = 35   NGY = 23   NGZ = 31
  (NGX  =144   NGY  = 96   NGZ  =128)
  gives a total of  24955 points

 initial charge density was supplied:
 charge density of overlapping atoms calculated
 number of electron     104.0000000 magnetization 
 keeping initial charge density in first step


--------------------------------------------------------------------------------------------------------


 Maximum index for augmentation-charges         4629 (set IRDMAX)


--------------------------------------------------------------------------------------------------------


 First call to EWALD:  gamma=   0.224
 Maximum number of real-space cells 2x 3x 3
 Maximum number of reciprocal cells 3x 2x 3

 FEWALD executed in parallel
    FEWALD:  cpu time    0.0010: real time    0.0023


----------------------------------------- Iteration    1(   1)  ---------------------------------------


    POTLOK:  cpu time    0.0660: real time    0.0675
    SETDIJ:  cpu time    0.0750: real time    0.0750
     EDDAV:  cpu time   16.9264: real time   16.9754
       DOS:  cpu time    0.0020: real time    0.0039
    --------------------------------------------
      LOOP:  cpu time   17.0724: real time   17.1383

 eigenvalue-minimisations  : 10560
 total energy-change (2. order) : 0.8389660E+03  (-0.4534710E+04)
 number of electron     104.0000000 magnetization 
 augmentation part      104.0000000 magnetization 

 Free energy of the ion-electron system (eV)
  ---------------------------------------------------
  alpha Z        PSCENC =        91.20601732
  Ewald energy   TEWEN  =     -3456.26287466
  -Hartree energ DENC   =     -2216.24387606
  -exchange      EXHF   =         0.00000000
  -V(xc)+E(xc)   XCENC  =       319.44109065
  PAW double counting   =      4858.33889406    -4853.68213864
  entropy T*S    EENTRO =        -0.00582632
  eigenvalues    EBANDS =       -18.33132992
  atomic energy  EATOM  =      6114.50603806
  Solvation  Ediel_sol  =         0.00000000
  ---------------------------------------------------
  free energy    TOTEN  =       838.96599449 eV

  energy without entropy =      838.97182082  energy(sigma->0) =      838.96890765


--------------------------------------------------------------------------------------------------------




----------------------------------------- Iteration    1(   2)  ---------------------------------------


     EDDAV:  cpu time   21.1378: real time   21.1929
       DOS:  cpu time    0.0010: real time    0.0013
    --------------------------------------------
      LOOP:  cpu time   21.1418: real time   21.2105

 eigenvalue-minimisations  : 14334
 total energy-change (2. order) :-0.8174562E+03  (-0.8025725E+03)
 number of electron     104.0000000 magnetization 
 augmentation part      104.0000000 magnetization 

 Free energy of the ion-electron system (eV)
  ---------------------------------------------------
  alpha Z        PSCENC =        91.20601732
  Ewald energy   TEWEN  =     -3456.26287466
  -Hartree energ DENC   =     -2216.24387606
  -exchange      EXHF   =         0.00000000
  -V(xc)+E(xc)   XCENC  =       319.44109065
  PAW double counting   =      4858.33889406    -4853.68213864
  entropy T*S    EENTRO =        -0.00000000
  eigenvalues    EBANDS =      -835.79335010
  atomic energy  EATOM  =      6114.50603806
  Solvation  Ediel_sol  =         0.00000000
  ---------------------------------------------------
  free energy    TOTEN  =        21.50980064 eV

  energy without entropy =       21.50980064  energy(sigma->0) =       21.50980064


--------------------------------------------------------------------------------------------------------




----------------------------------------- Iteration    1(   3)  ---------------------------------------


     EDDAV:  cpu time   19.2341: real time   19.3009
       DOS:  cpu time    0.0020: real time    0.0013
    --------------------------------------------
      LOOP:  cpu time   19.2391: real time   19.3183

 eigenvalue-minimisations  : 12732
 total energy-change (2. order) :-0.8879660E+02  (-0.8826242E+02)
 number of electron     104.0000000 magnetization 
 augmentation part      104.0000000 magnetization 

 Free energy of the ion-electron system (eV)
  ---------------------------------------------------
  alpha Z        PSCENC =        91.20601732
  Ewald energy   TEWEN  =     -3456.26287466
  -Hartree energ DENC   =     -2216.24387606
  -exchange      EXHF   =         0.00000000
  -V(xc)+E(xc)   XCENC  =       319.44109065
  PAW double counting   =      4858.33889406    -4853.68213864
  entropy T*S    EENTRO =        -0.00000000
  eigenvalues    EBANDS =      -924.58995213
  atomic energy  EATOM  =      6114.50603806
  Solvation  Ediel_sol  =         0.00000000
  ---------------------------------------------------
  free energy    TOTEN  =       -67.28680140 eV

  energy without entropy =      -67.28680140  energy(sigma->0) =      -67.28680140


--------------------------------------------------------------------------------------------------------




----------------------------------------- Iteration    1(   4)  ---------------------------------------


     EDDAV:  cpu time   18.8211: real time   18.8703
       DOS:  cpu time    0.0020: real time    0.0013
    --------------------------------------------
      LOOP:  cpu time   18.8251: real time   18.8918

 eigenvalue-minimisations  : 12366
 total energy-change (2. order) :-0.1590820E+01  (-0.1583770E+01)
 number of electron     104.0000000 magnetization 
 augmentation part      104.0000000 magnetization 

 Free energy of the ion-electron system (eV)
  ---------------------------------------------------
  alpha Z        PSCENC =        91.20601732
  Ewald energy   TEWEN  =     -3456.26287466
  -Hartree energ DENC   =     -2216.24387606
  -exchange      EXHF   =         0.00000000
  -V(xc)+E(xc)   XCENC  =       319.44109065
  PAW double counting   =      4858.33889406    -4853.68213864
  entropy T*S    EENTRO =        -0.00000000
  eigenvalues    EBANDS =      -926.18077229
  atomic energy  EATOM  =      6114.50603806
  Solvation  Ediel_sol  =         0.00000000
  ---------------------------------------------------
  free energy    TOTEN  =       -68.87762156 eV

  energy without entropy =      -68.87762156  energy(sigma->0) =      -68.87762156


--------------------------------------------------------------------------------------------------------




----------------------------------------- Iteration    1(   5)  ---------------------------------------


     EDDAV:  cpu time   18.7671: real time   18.8174
       DOS:  cpu time    0.0010: real time    0.0014
    CHARGE:  cpu time    0.7739: real time    0.7772
    MIXING:  cpu time    0.0030: real time    0.0029
    --------------------------------------------
      LOOP:  cpu time   19.5460: real time   19.6178

 eigenvalue-minimisations  : 12312
 total energy-change (2. order) :-0.3887218E-01  (-0.3885729E-01)
 number of electron     103.9999999 magnetization 
 augmentation part       -7.7305455 magnetization 

 Broyden mixing:
  rms(total) = 0.57998E+01    rms(broyden)= 0.57996E+01
  rms(prec ) = 0.60424E+01
  weight for this iteration     100.00

 Free energy of the ion-electron system (eV)
  ---------------------------------------------------
  alpha Z        PSCENC =        91.20601732
  Ewald energy   TEWEN  =     -3456.26287466
  -Hartree energ DENC   =     -2216.24387606
  -exchange      EXHF   =         0.00000000
  -V(xc)+E(xc)   XCENC  =       319.44109065
  PAW double counting   =      4858.33889406    -4853.68213864
  entropy T*S    EENTRO =        -0.00000000
  eigenvalues    EBANDS =      -926.21964448
  atomic energy  EATOM  =      6114.50603806
  Solvation  Ediel_sol  =         0.00000000
  ---------------------------------------------------
  free energy    TOTEN  =       -68.91649375 eV

  energy without entropy =      -68.91649375  energy(sigma->0) =      -68.91649375


--------------------------------------------------------------------------------------------------------




----------------------------------------- Iteration    1(   6)  ---------------------------------------


    POTLOK:  cpu time    0.0660: real time    0.0663
    SETDIJ:  cpu time    0.0730: real time    0.0723
     EDDAV:  cpu time   18.4732: real time   18.5209
       DOS:  cpu time    0.0010: real time    0.0015
    CHARGE:  cpu time    0.7739: real time    0.7743
    MIXING:  cpu time    0.0020: real time    0.0023
    --------------------------------------------
      LOOP:  cpu time   19.3911: real time   19.4590

 eigenvalue-minimisations  : 12180
 total energy-change (2. order) : 0.4600989E+01  (-0.2484803E+00)
 number of electron     103.9999999 magnetization 
 augmentation part       -7.9892761 magnetization 

 Broyden mixing:
  rms(total) = 0.52474E+01    rms(broyden)= 0.52474E+01
  rms(prec ) = 0.53844E+01
  weight for this iteration     100.00

 eigenvalues of (default mixing * dielectric matrix)
  average eigenvalue GAMMA=   6.7914
  6.7914

 Free energy of the ion-electron system (eV)
  ---------------------------------------------------
  alpha Z        PSCENC =        91.20601732
  Ewald energy   TEWEN  =     -3456.26287466
  -Hartree energ DENC   =     -2232.48945574
  -exchange      EXHF   =         0.00000000
  -V(xc)+E(xc)   XCENC  =       320.73654869
  PAW double counting   =      5373.84087242    -5369.48015674
  entropy T*S    EENTRO =        -0.00000000
  eigenvalues    EBANDS =      -906.37249446
  atomic energy  EATOM  =      6114.50603806
  Solvation  Ediel_sol  =         0.00000000
  ---------------------------------------------------
  free energy    TOTEN  =       -64.31550509 eV

  energy without entropy =      -64.31550509  energy(sigma->0) =      -64.31550509


--------------------------------------------------------------------------------------------------------




----------------------------------------- Iteration    1(   7)  ---------------------------------------


    POTLOK:  cpu time    0.0650: real time    0.0660
    SETDIJ:  cpu time    0.0730: real time    0.0727
     EDDAV:  cpu time   16.7325: real time   16.7780
       DOS:  cpu time    0.0020: real time    0.0015
    CHARGE:  cpu time    0.7719: real time    0.7744
    MIXING:  cpu time    0.0030: real time    0.0021
    --------------------------------------------
      LOOP:  cpu time   17.6503: real time   17.7153

 eigenvalue-minimisations  : 10608
 total energy-change (2. order) :-0.1856809E+00  (-0.4589709E+01)
 number of electron     103.9999999 magnetization 
 augmentation part       -9.4365569 magnetization 

 Broyden mixing:
  rms(total) = 0.34529E+01    rms(broyden)= 0.34525E+01
  rms(prec ) = 0.37535E+01
  weight for this iteration     100.00

 eigenvalues of (default mixing * dielectric matrix)
  average eigenvalue GAMMA=   3.5085
  6.7933  0.2237

 Free energy of the ion-electron system (eV)
  ---------------------------------------------------
  alpha Z        PSCENC =        91.20601732
  Ewald energy   TEWEN  =     -3456.26287466
  -Hartree energ DENC   =     -2301.43880139
  -exchange      EXHF   =         0.00000000
  -V(xc)+E(xc)   XCENC  =       326.17974328
  PAW double counting   =      9094.46072603    -9091.20457795
  entropy T*S    EENTRO =        -0.00000000
  eigenvalues    EBANDS =      -841.94745667
  atomic energy  EATOM  =      6114.50603806
  Solvation  Ediel_sol  =         0.00000000
  ---------------------------------------------------
  free energy    TOTEN  =       -64.50118597 eV

  energy without entropy =      -64.50118597  energy(sigma->0) =      -64.50118597


--------------------------------------------------------------------------------------------------------




----------------------------------------- Iteration    1(   8)  ---------------------------------------


    POTLOK:  cpu time    0.0660: real time    0.0660
    SETDIJ:  cpu time    0.0710: real time    0.0726
     EDDAV:  cpu time   18.4712: real time   18.5180
       DOS:  cpu time    0.0010: real time    0.0015
    CHARGE:  cpu time    0.7729: real time    0.7743
    MIXING:  cpu time    0.0020: real time    0.0023
    --------------------------------------------
      LOOP:  cpu time   19.3881: real time   19.4556

 eigenvalue-minimisations  : 12168
 total energy-change (2. order) :-0.2093502E+01  (-0.1073492E+01)
 number of electron     103.9999999 magnetization 
 augmentation part       -9.6982768 magnetization 

 Broyden mixing:
  rms(total) = 0.30483E+01    rms(broyden)= 0.30483E+01
  rms(prec ) = 0.35465E+01
  weight for this iteration     100.00

 eigenvalues of (default mixing * dielectric matrix)
  average eigenvalue GAMMA=   2.2843
  4.0078  2.4957  0.3492

 Free energy of the ion-electron system (eV)
  ---------------------------------------------------
  alpha Z        PSCENC =        91.20601732
  Ewald energy   TEWEN  =     -3456.26287466
  -Hartree energ DENC   =     -2305.36568358
  -exchange      EXHF   =         0.00000000
  -V(xc)+E(xc)   XCENC  =       326.41409364
  PAW double counting   =      9045.27466281    -9042.08319350
  entropy T*S    EENTRO =        -0.00000000
  eigenvalues    EBANDS =      -840.28374842
  atomic energy  EATOM  =      6114.50603806
  Solvation  Ediel_sol  =         0.00000000
  ---------------------------------------------------
  free energy    TOTEN  =       -66.59468831 eV

  energy without entropy =      -66.59468831  energy(sigma->0) =      -66.59468831


--------------------------------------------------------------------------------------------------------




----------------------------------------- Iteration    1(   9)  ---------------------------------------


    POTLOK:  cpu time    0.0660: real time    0.0662
    SETDIJ:  cpu time    0.0730: real time    0.0728
     EDDAV:  cpu time   18.5862: real time   18.6324
       DOS:  cpu time    0.0020: real time    0.0015
    CHARGE:  cpu time    0.7739: real time    0.7748
    MIXING:  cpu time    0.0020: real time    0.0020
    --------------------------------------------
      LOOP:  cpu time   19.5070: real time   19.5737

 eigenvalue-minimisations  : 12264
 total energy-change (2. order) : 0.4001021E+01  (-0.5147606E+00)
 number of electron     103.9999999 magnetization 
 augmentation part       -9.2077969 magnetization 

 Broyden mixing:
  rms(total) = 0.46751E+01    rms(broyden)= 0.46751E+01
  rms(prec ) = 0.48036E+01
  weight for this iteration     100.00

 eigenvalues of (default mixing * dielectric matrix)
  average eigenvalue GAMMA=   3.4235
  9.3638  3.0121  0.8578  0.4604

 Free energy of the ion-electron system (eV)
  ---------------------------------------------------
  alpha Z        PSCENC =        91.20601732
  Ewald energy   TEWEN  =     -3456.26287466
  -Hartree energ DENC   =     -2282.98611950
  -exchange      EXHF   =         0.00000000
  -V(xc)+E(xc)   XCENC  =       324.24942817
  PAW double counting   =      5960.33348889    -5957.13424031
  entropy T*S    EENTRO =        -0.00000000
  eigenvalues    EBANDS =      -856.50540510
  atomic energy  EATOM  =      6114.50603806
  Solvation  Ediel_sol  =         0.00000000
  ---------------------------------------------------
  free energy    TOTEN  =       -62.59366712 eV

  energy without entropy =      -62.59366712  energy(sigma->0) =      -62.59366712


--------------------------------------------------------------------------------------------------------




----------------------------------------- Iteration    1(  10)  ---------------------------------------


    POTLOK:  cpu time    0.0670: real time    0.0665
    SETDIJ:  cpu time    0.0720: real time    0.0728
     EDDAV:  cpu time   21.2058: real time   21.2572
       DOS:  cpu time    0.0020: real time    0.0015
    CHARGE:  cpu time    0.7739: real time    0.7749
    MIXING:  cpu time    0.0020: real time    0.0019
    --------------------------------------------
      LOOP:  cpu time   22.1256: real time   22.1889

 eigenvalue-minimisations  : 14568
 total energy-change (2. order) : 0.1597614E+01  (-0.1566022E+01)
 number of electron     103.9999999 magnetization 
 augmentation part       -8.5710061 magnetization 

 Broyden mixing:
  rms(total) = 0.17918E+01    rms(broyden)= 0.17917E+01
  rms(prec ) = 0.18637E+01
  weight for this iteration     100.00

 eigenvalues of (default mixing * dielectric matrix)
  average eigenvalue GAMMA=   2.9220
  9.2498  3.2781  0.8279  0.8279  0.4261

 Free energy of the ion-electron system (eV)
  ---------------------------------------------------
  alpha Z        PSCENC =        91.20601732
  Ewald energy   TEWEN  =     -3456.26287466
  -Hartree energ DENC   =     -2267.93853505
  -exchange      EXHF   =         0.00000000
  -V(xc)+E(xc)   XCENC  =       325.06155078
  PAW double counting   =     15953.59327500   -15948.66085696
  entropy T*S    EENTRO =        -0.00000000
  eigenvalues    EBANDS =      -872.50066764
  atomic energy  EATOM  =      6114.50603806
  Solvation  Ediel_sol  =         0.00000000
  ---------------------------------------------------
  free energy    TOTEN  =       -60.99605315 eV

  energy without entropy =      -60.99605315  energy(sigma->0) =      -60.99605315


--------------------------------------------------------------------------------------------------------




----------------------------------------- Iteration    1(  11)  ---------------------------------------


    POTLOK:  cpu time    0.0660: real time    0.0661
    SETDIJ:  cpu time    0.0720: real time    0.0727
     EDDAV:  cpu time   17.9823: real time   18.0279
       DOS:  cpu time    0.0010: real time    0.0015
    CHARGE:  cpu time    0.7729: real time    0.7739
    MIXING:  cpu time    0.0020: real time    0.0019
    --------------------------------------------
      LOOP:  cpu time   18.8981: real time   18.9636

 eigenvalue-minimisations  : 11766
 total energy-change (2. order) :-0.3135790E+00  (-0.3924086E+00)
 number of electron     103.9999999 magnetization 
 augmentation part       -8.4006512 magnetization 

 Broyden mixing:
  rms(total) = 0.15582E+01    rms(broyden)= 0.15582E+01
  rms(prec ) = 0.16572E+01
  weight for this iteration     100.00

 eigenvalues of (default mixing * dielectric matrix)
  average eigenvalue GAMMA=   2.4965
  9.3919  3.1282  0.7782  0.7782  0.4282  0.4741

 Free energy of the ion-electron system (eV)
  ---------------------------------------------------
  alpha Z        PSCENC =        91.20601732
  Ewald energy   TEWEN  =     -3456.26287466
  -Hartree energ DENC   =     -2263.19803865
  -exchange      EXHF   =         0.00000000
  -V(xc)+E(xc)   XCENC  =       324.66021991
  PAW double counting   =     16094.77982014   -16089.80463055
  entropy T*S    EENTRO =        -0.00000000
  eigenvalues    EBANDS =      -877.19618374
  atomic energy  EATOM  =      6114.50603806
  Solvation  Ediel_sol  =         0.00000000
  ---------------------------------------------------
  free energy    TOTEN  =       -61.30963217 eV

  energy without entropy =      -61.30963217  energy(sigma->0) =      -61.30963217


--------------------------------------------------------------------------------------------------------




----------------------------------------- Iteration    1(  12)  ---------------------------------------


    POTLOK:  cpu time    0.0660: real time    0.0662
    SETDIJ:  cpu time    0.0720: real time    0.0729
     EDDAV:  cpu time   19.1461: real time   19.1966
       DOS:  cpu time    0.0010: real time    0.0015
    CHARGE:  cpu time    0.7719: real time    0.7736
    MIXING:  cpu time    0.0020: real time    0.0021
    --------------------------------------------
      LOOP:  cpu time   20.0639: real time   20.1347

 eigenvalue-minimisations  : 12798
 total energy-change (2. order) : 0.2249436E+00  (-0.1155224E-01)
 number of electron     103.9999999 magnetization 
 augmentation part       -8.4344019 magnetization 

 Broyden mixing:
  rms(total) = 0.14145E+01    rms(broyden)= 0.14145E+01
  rms(prec ) = 0.14911E+01
  weight for this iteration     100.00

 eigenvalues of (default mixing * dielectric matrix)
  average eigenvalue GAMMA=   2.4863
  9.1830  2.7011  1.6592  1.6592  0.4271  0.8871  0.8871

 Free energy of the ion-electron system (eV)
  ---------------------------------------------------
  alpha Z        PSCENC =        91.20601732
  Ewald energy   TEWEN  =     -3456.26287466
  -Hartree energ DENC   =     -2266.11742576
  -exchange      EXHF   =         0.00000000
  -V(xc)+E(xc)   XCENC  =       324.78035980
  PAW double counting   =     15855.99107906   -15851.12284457
  entropy T*S    EENTRO =        -0.00000000
  eigenvalues    EBANDS =      -874.06503781
  atomic energy  EATOM  =      6114.50603806
  Solvation  Ediel_sol  =         0.00000000
  ---------------------------------------------------
  free energy    TOTEN  =       -61.08468855 eV

  energy without entropy =      -61.08468855  energy(sigma->0) =      -61.08468855


--------------------------------------------------------------------------------------------------------




----------------------------------------- Iteration    1(  13)  ---------------------------------------


    POTLOK:  cpu time    0.0670: real time    0.0663
    SETDIJ:  cpu time    0.0720: real time    0.0729
     EDDAV:  cpu time   21.7027: real time   21.7552
       DOS:  cpu time    0.0020: real time    0.0015
    CHARGE:  cpu time    0.7719: real time    0.7744
    MIXING:  cpu time    0.0020: real time    0.0020
    --------------------------------------------
      LOOP:  cpu time   22.6216: real time   22.6956

 eigenvalue-minimisations  : 15066
 total energy-change (2. order) : 0.4755810E+00  (-0.9035309E-01)
 number of electron     103.9999999 magnetization 
 augmentation part       -8.6112244 magnetization 

 Broyden mixing:
  rms(total) = 0.72572E+00    rms(broyden)= 0.72570E+00
  rms(prec ) = 0.74016E+00
  weight for this iteration     100.00

 eigenvalues of (default mixing * dielectric matrix)
  average eigenvalue GAMMA=   2.4991
  9.7845  2.8294  2.1352  2.1352  0.4269  0.9091  0.9091  0.8633

 Free energy of the ion-electron system (eV)
  ---------------------------------------------------
  alpha Z        PSCENC =        91.20601732
  Ewald energy   TEWEN  =     -3456.26287466
  -Hartree energ DENC   =     -2274.36058934
  -exchange      EXHF   =         0.00000000
  -V(xc)+E(xc)   XCENC  =       324.89630293
  PAW double counting   =     14250.52924062   -14246.12123503
  entropy T*S    EENTRO =        -0.00000000
  eigenvalues    EBANDS =      -865.00200742
  atomic energy  EATOM  =      6114.50603806
  Solvation  Ediel_sol  =         0.00000000
  ---------------------------------------------------
  free energy    TOTEN  =       -60.60910751 eV

  energy without entropy =      -60.60910751  energy(sigma->0) =      -60.60910751


--------------------------------------------------------------------------------------------------------




----------------------------------------- Iteration    1(  14)  ---------------------------------------


    POTLOK:  cpu time    0.0650: real time    0.0660
    SETDIJ:  cpu time    0.0710: real time    0.0728
     EDDAV:  cpu time   17.6423: real time   17.6864
       DOS:  cpu time    0.0010: real time    0.0015
    CHARGE:  cpu time    0.7759: real time    0.7773
    MIXING:  cpu time    0.0020: real time    0.0021
    --------------------------------------------
      LOOP:  cpu time   18.5612: real time   18.6286

 eigenvalue-minimisations  : 11466
 total energy-change (2. order) :-0.1726455E-02  (-0.2968371E-01)
 number of electron     103.9999999 magnetization 
 augmentation part       -8.6432720 magnetization 

 Broyden mixing:
  rms(total) = 0.86670E+00    rms(broyden)= 0.86670E+00
  rms(prec ) = 0.87756E+00
  weight for this iteration     100.00

 eigenvalues of (default mixing * dielectric matrix)
  average eigenvalue GAMMA=   2.3524
  9.7895  3.0579  2.2613  2.2613  0.9726  0.9726  0.4269  0.7147  0.7147

 Free energy of the ion-electron system (eV)
  ---------------------------------------------------
  alpha Z        PSCENC =        91.20601732
  Ewald energy   TEWEN  =     -3456.26287466
  -Hartree energ DENC   =     -2274.57277514
  -exchange      EXHF   =         0.00000000
  -V(xc)+E(xc)   XCENC  =       324.86182795
  PAW double counting   =     14238.67949274   -14234.32099706
  entropy T*S    EENTRO =        -0.00000000
  eigenvalues    EBANDS =      -864.70756318
  atomic energy  EATOM  =      6114.50603806
  Solvation  Ediel_sol  =         0.00000000
  ---------------------------------------------------
  free energy    TOTEN  =       -60.61083397 eV

  energy without entropy =      -60.61083397  energy(sigma->0) =      -60.61083397


--------------------------------------------------------------------------------------------------------




----------------------------------------- Iteration    1(  15)  ---------------------------------------


    POTLOK:  cpu time    0.0660: real time    0.0663
    SETDIJ:  cpu time    0.0720: real time    0.0732
     EDDAV:  cpu time   18.6612: real time   18.7087
       DOS:  cpu time    0.0020: real time    0.0015
    CHARGE:  cpu time    0.7719: real time    0.7737
    MIXING:  cpu time    0.0020: real time    0.0022
    --------------------------------------------
      LOOP:  cpu time   19.5780: real time   19.6419

 eigenvalue-minimisations  : 12372
 total energy-change (2. order) : 0.2486967E-01  (-0.1783855E-02)
 number of electron     103.9999999 magnetization 
 augmentation part       -8.6259825 magnetization 

 Broyden mixing:
  rms(total) = 0.78641E+00    rms(broyden)= 0.78641E+00
  rms(prec ) = 0.79359E+00
  weight for this iteration     100.00

 eigenvalues of (default mixing * dielectric matrix)
  average eigenvalue GAMMA=   2.3927
  9.5746  3.5653  2.5532  2.5532  1.4104  1.4104  0.4269  0.8308  0.8308  0.7714

 Free energy of the ion-electron system (eV)
  ---------------------------------------------------
  alpha Z        PSCENC =        91.20601732
  Ewald energy   TEWEN  =     -3456.26287466
  -Hartree energ DENC   =     -2273.65502610
  -exchange      EXHF   =         0.00000000
  -V(xc)+E(xc)   XCENC  =       324.74847377
  PAW double counting   =     13969.17386903   -13964.85750578
  entropy T*S    EENTRO =        -0.00000000
  eigenvalues    EBANDS =      -865.44495594
  atomic energy  EATOM  =      6114.50603806
  Solvation  Ediel_sol  =         0.00000000
  ---------------------------------------------------
  free energy    TOTEN  =       -60.58596430 eV

  energy without entropy =      -60.58596430  energy(sigma->0) =      -60.58596430


--------------------------------------------------------------------------------------------------------




----------------------------------------- Iteration    1(  16)  ---------------------------------------


    POTLOK:  cpu time    0.0660: real time    0.0661
    SETDIJ:  cpu time    0.0730: real time    0.0727
     EDDAV:  cpu time   17.7153: real time   17.7618
       DOS:  cpu time    0.0010: real time    0.0015
    CHARGE:  cpu time    0.7739: real time    0.7741
    MIXING:  cpu time    0.0020: real time    0.0024
    --------------------------------------------
      LOOP:  cpu time   18.6342: real time   18.7012

 eigenvalue-minimisations  : 11502
 total energy-change (2. order) : 0.3019926E-01  (-0.4361793E-02)
 number of electron     103.9999999 magnetization 
 augmentation part       -8.5974347 magnetization 

 Broyden mixing:
  rms(total) = 0.47633E+00    rms(broyden)= 0.47633E+00
  rms(prec ) = 0.47898E+00
  weight for this iteration     100.00

 eigenvalues of (default mixing * dielectric matrix)
  average eigenvalue GAMMA=   2.4656
  9.8698  4.4952  3.4845  1.9531  1.6996  1.6996  0.4269  0.9423  0.9423  0.8042
  0.8042

 Free energy of the ion-electron system (eV)
  ---------------------------------------------------
  alpha Z        PSCENC =        91.20601732
  Ewald energy   TEWEN  =     -3456.26287466
  -Hartree energ DENC   =     -2272.39868758
  -exchange      EXHF   =         0.00000000
  -V(xc)+E(xc)   XCENC  =       324.55208622
  PAW double counting   =     13208.18007125   -13204.01373934
  entropy T*S    EENTRO =        -0.00000000
  eigenvalues    EBANDS =      -866.32467632
  atomic energy  EATOM  =      6114.50603806
  Solvation  Ediel_sol  =         0.00000000
  ---------------------------------------------------
  free energy    TOTEN  =       -60.55576504 eV

  energy without entropy =      -60.55576504  energy(sigma->0) =      -60.55576504


--------------------------------------------------------------------------------------------------------




----------------------------------------- Iteration    1(  17)  ---------------------------------------


    POTLOK:  cpu time    0.0660: real time    0.0665
    SETDIJ:  cpu time    0.0730: real time    0.0728
     EDDAV:  cpu time   18.7442: real time   18.8120
       DOS:  cpu time    0.0020: real time    0.0015
    CHARGE:  cpu time    0.7719: real time    0.7738
    MIXING:  cpu time    0.0020: real time    0.0024
    --------------------------------------------
      LOOP:  cpu time   19.6620: real time   19.7471

 eigenvalue-minimisations  : 12432
 total energy-change (2. order) : 0.6955699E-02  (-0.1137556E-02)
 number of electron     103.9999999 magnetization 
 augmentation part       -8.5852727 magnetization 

 Broyden mixing:
  rms(total) = 0.28746E+00    rms(broyden)= 0.28746E+00
  rms(prec ) = 0.28830E+00
  weight for this iteration     100.00

 eigenvalues of (default mixing * dielectric matrix)
  average eigenvalue GAMMA=   2.5416
  9.8384  4.7837  4.7837  1.9728  1.9728  1.9607  0.4269  1.1144  1.1144  0.8701
  0.8701  0.7909

 Free energy of the ion-electron system (eV)
  ---------------------------------------------------
  alpha Z        PSCENC =        91.20601732
  Ewald energy   TEWEN  =     -3456.26287466
  -Hartree energ DENC   =     -2272.28375264
  -exchange      EXHF   =         0.00000000
  -V(xc)+E(xc)   XCENC  =       324.48097404
  PAW double counting   =     12770.02276855   -12765.97855382
  entropy T*S    EENTRO =        -0.00000000
  eigenvalues    EBANDS =      -866.23942619
  atomic energy  EATOM  =      6114.50603806
  Solvation  Ediel_sol  =         0.00000000
  ---------------------------------------------------
  free energy    TOTEN  =       -60.54880934 eV

  energy without entropy =      -60.54880934  energy(sigma->0) =      -60.54880934


--------------------------------------------------------------------------------------------------------




----------------------------------------- Iteration    1(  18)  ---------------------------------------


    POTLOK:  cpu time    0.0670: real time    0.0665
    SETDIJ:  cpu time    0.0720: real time    0.0725
     EDDAV:  cpu time   18.7042: real time   18.7527
       DOS:  cpu time    0.0010: real time    0.0015
    CHARGE:  cpu time    0.7729: real time    0.7742
    MIXING:  cpu time    0.0030: real time    0.0025
    --------------------------------------------
      LOOP:  cpu time   19.6250: real time   19.6876

 eigenvalue-minimisations  : 12378
 total energy-change (2. order) : 0.8481782E-03  (-0.2928181E-03)
 number of electron     103.9999999 magnetization 
 augmentation part       -8.5851970 magnetization 

 Broyden mixing:
  rms(total) = 0.12069E+00    rms(broyden)= 0.12069E+00
  rms(prec ) = 0.12123E+00
  weight for this iteration     100.00

 eigenvalues of (default mixing * dielectric matrix)
  average eigenvalue GAMMA=   2.7545
  8.7405  8.7405  5.2643  3.1105  1.8553  1.8553  0.4269  1.2733  1.1198  0.8903
  0.8903  0.8209  0.8209

 Free energy of the ion-electron system (eV)
  ---------------------------------------------------
  alpha Z        PSCENC =        91.20601732
  Ewald energy   TEWEN  =     -3456.26287466
  -Hartree energ DENC   =     -2272.80500521
  -exchange      EXHF   =         0.00000000
  -V(xc)+E(xc)   XCENC  =       324.45919754
  PAW double counting   =     12380.29758890   -12376.37053622
  entropy T*S    EENTRO =        -0.00000000
  eigenvalues    EBANDS =      -865.57838690
  atomic energy  EATOM  =      6114.50603806
  Solvation  Ediel_sol  =         0.00000000
  ---------------------------------------------------
  free energy    TOTEN  =       -60.54796116 eV

  energy without entropy =      -60.54796116  energy(sigma->0) =      -60.54796116


--------------------------------------------------------------------------------------------------------




----------------------------------------- Iteration    1(  19)  ---------------------------------------


    POTLOK:  cpu time    0.0650: real time    0.0665
    SETDIJ:  cpu time    0.0730: real time    0.0729
     EDDAV:  cpu time   17.6193: real time   17.6628
       DOS:  cpu time    0.0010: real time    0.0015
    CHARGE:  cpu time    0.7729: real time    0.7739
    MIXING:  cpu time    0.0030: real time    0.0026
    --------------------------------------------
      LOOP:  cpu time   18.5392: real time   18.6058

 eigenvalue-minimisations  : 11412
 total energy-change (2. order) :-0.3037157E-02  (-0.7357658E-03)
 number of electron     103.9999999 magnetization 
 augmentation part       -8.5688257 magnetization 

 Broyden mixing:
  rms(total) = 0.10829E+00    rms(broyden)= 0.10829E+00
  rms(prec ) = 0.11282E+00
[...]
     25      -6.5921      2.00000
     26      -6.5904      2.00000
     27      -6.4505      2.00000
     28      -6.4493      2.00000
     29      -4.1753      2.00000
     30      -4.1676      2.00000
     31      -4.0737      2.00000
     32      -4.0653      2.00000
     33      -3.9111      2.00000
     34      -3.9061      2.00000
     35      -3.8638      2.00000
     36      -3.8454      2.00000
     37      -3.4124      2.00000
     38      -3.3929      2.00000
     39      -3.3662      2.00000
     40      -3.3461      2.00000
     41      -3.0343      2.00000
     42      -3.0259      2.00000
     43      -3.0146      2.00000
     44      -3.0055      2.00000
     45      -2.7319      2.00000
     46      -2.7175      2.00000
     47      -2.6710      2.00000
     48      -2.6526      2.00000
     49      -2.4158      2.00000
     50      -2.4146      2.00000
     51      -2.3284      2.00000
     52      -2.3270      2.00000
     53       1.4410      0.00000
     54       1.4728      0.00000
     55       1.5488      0.00000
     56       1.5818      0.00000
     57       1.9301      0.00000
     58       1.9543      0.00000
     59       2.0807      0.00000
     60       2.0989      0.00000
     61       3.9717      0.00000
     62       3.9902      0.00000
     63       4.0798      0.00000
     64       4.0955      0.00000
     65       6.1289      0.00000
     66       6.2603      0.00000

 k-point    78 :       0.0000    0.5000    0.5000
  band No.  band energies     occupation 
      1     -22.8751      2.00000
      2     -22.8751      2.00000
      3     -22.8732      2.00000
      4     -22.8732      2.00000
      5     -16.9921      2.00000
      6     -16.9921      2.00000
      7     -16.9904      2.00000
      8     -16.9904      2.00000
      9     -15.9041      2.00000
     10     -15.9041      2.00000
     11     -15.8969      2.00000
     12     -15.8969      2.00000
     13     -11.7777      2.00000
     14     -11.7777      2.00000
     15     -11.7615      2.00000
     16     -11.7615      2.00000
     17      -7.4707      2.00000
     18      -7.4707      2.00000
     19      -7.4706      2.00000
     20      -7.4706      2.00000
     21      -7.2482      2.00000
     22      -7.2482      2.00000
     23      -7.1787      2.00000
     24      -7.1787      2.00000
     25      -6.5307      2.00000
     26      -6.5307      2.00000
     27      -6.5096      2.00000
     28      -6.5096      2.00000
     29      -4.1170      2.00000
     30      -4.1170      2.00000
     31      -4.0990      2.00000
     32      -4.0990      2.00000
     33      -3.9484      2.00000
     34      -3.9484      2.00000
     35      -3.8749      2.00000
     36      -3.8749      2.00000
     37      -3.4269      2.00000
     38      -3.4269      2.00000
     39      -3.3378      2.00000
     40      -3.3378      2.00000
     41      -3.0470      2.00000
     42      -3.0470      2.00000
     43      -2.9950      2.00000
     44      -2.9950      2.00000
     45      -2.6955      2.00000
     46      -2.6955      2.00000
     47      -2.6426      2.00000
     48      -2.6426      2.00000
     49      -2.3856      2.00000
     50      -2.3856      2.00000
     51      -2.3557      2.00000
     52      -2.3557      2.00000
     53       1.4985      0.00000
     54       1.4985      0.00000
     55       1.5274      0.00000
     56       1.5274      0.00000
     57       1.9521      0.00000
     58       1.9521      0.00000
     59       2.0335      0.00000
     60       2.0335      0.00000
     61       4.0386      0.00000
     62       4.0386      0.00000
     63       4.0433      0.00000
     64       4.0433      0.00000
     65       6.3545      0.00000
     66       6.3569      0.00000

 k-point    79 :       0.2000    0.5000    0.5000
  band No.  band energies     occupation 
      1     -22.8751      2.00000
      2     -22.8751      2.00000
      3     -22.8732      2.00000
      4     -22.8732      2.00000
      5     -16.9937      2.00000
      6     -16.9937      2.00000
      7     -16.9889      2.00000
      8     -16.9889      2.00000
      9     -15.9041      2.00000
     10     -15.9041      2.00000
     11     -15.8967      2.00000
     12     -15.8967      2.00000
     13     -11.7764      2.00000
     14     -11.7764      2.00000
     15     -11.7629      2.00000
     16     -11.7629      2.00000
     17      -7.4856      2.00000
     18      -7.4856      2.00000
     19      -7.4564      2.00000
     20      -7.4564      2.00000
     21      -7.2506      2.00000
     22      -7.2506      2.00000
     23      -7.1777      2.00000
     24      -7.1777      2.00000
     25      -6.5287      2.00000
     26      -6.5287      2.00000
     27      -6.5083      2.00000
     28      -6.5083      2.00000
     29      -4.1536      2.00000
     30      -4.1536      2.00000
     31      -4.0776      2.00000
     32      -4.0776      2.00000
     33      -3.9355      2.00000
     34      -3.9355      2.00000
     35      -3.8650      2.00000
     36      -3.8650      2.00000
     37      -3.4216      2.00000
     38      -3.4216      2.00000
     39      -3.3499      2.00000
     40      -3.3499      2.00000
     41      -3.0425      2.00000
     42      -3.0425      2.00000
     43      -2.9978      2.00000
     44      -2.9978      2.00000
     45      -2.6932      2.00000
     46      -2.6932      2.00000
     47      -2.6509      2.00000
     48      -2.6509      2.00000
     49      -2.3983      2.00000
     50      -2.3983      2.00000
     51      -2.3422      2.00000
     52      -2.3422      2.00000
     53       1.4725      0.00000
     54       1.4725      0.00000
     55       1.5417      0.00000
     56       1.5417      0.00000
     57       1.9472      0.00000
     58       1.9472      0.00000
     59       2.0605      0.00000
     60       2.0605      0.00000
     61       4.0196      0.00000
     62       4.0196      0.00000
     63       4.0571      0.00000
     64       4.0571      0.00000
     65       6.3542      0.00000
     66       6.3543      0.00000

 k-point    80 :       0.4000    0.5000    0.5000
  band No.  band energies     occupation 
      1     -22.8751      2.00000
      2     -22.8751      2.00000
      3     -22.8733      2.00000
      4     -22.8733      2.00000
      5     -16.9950      2.00000
      6     -16.9950      2.00000
      7     -16.9876      2.00000
      8     -16.9876      2.00000
      9     -15.9042      2.00000
     10     -15.9042      2.00000
     11     -15.8964      2.00000
     12     -15.8964      2.00000
     13     -11.7734      2.00000
     14     -11.7734      2.00000
     15     -11.7661      2.00000
     16     -11.7661      2.00000
     17      -7.4952      2.00000
     18      -7.4952      2.00000
     19      -7.4480      2.00000
     20      -7.4480      2.00000
     21      -7.2543      2.00000
     22      -7.2543      2.00000
     23      -7.1762      2.00000
     24      -7.1762      2.00000
     25      -6.5254      2.00000
     26      -6.5254      2.00000
     27      -6.5063      2.00000
     28      -6.5063      2.00000
     29      -4.1817      2.00000
     30      -4.1817      2.00000
     31      -4.0770      2.00000
     32      -4.0770      2.00000
     33      -3.9074      2.00000
     34      -3.9074      2.00000
     35      -3.8525      2.00000
     36      -3.8525      2.00000
     37      -3.4073      2.00000
     38      -3.4073      2.00000
     39      -3.3763      2.00000
     40      -3.3763      2.00000
     41      -3.0298      2.00000
     42      -3.0298      2.00000
     43      -3.0075      2.00000
     44      -3.0075      2.00000
     45      -2.6871      2.00000
     46      -2.6871      2.00000
     47      -2.6670      2.00000
     48      -2.6670      2.00000
     49      -2.4100      2.00000
     50      -2.4100      2.00000
     51      -2.3288      2.00000
     52      -2.3288      2.00000
     53       1.4482      0.00000
     54       1.4482      0.00000
     55       1.5459      0.00000
     56       1.5459      0.00000
     57       1.9509      0.00000
     58       1.9509      0.00000
     59       2.0938      0.00000
     60       2.0938      0.00000
     61       4.0017      0.00000
     62       4.0017      0.00000
     63       4.0665      0.00000
     64       4.0665      0.00000
     65       6.3766      0.00000
     66       6.3766      0.00000


--------------------------------------------------------------------------------------------------------


 soft charge-density along one line, spin component           1
         0         1         2         3         4         5         6         7         8         9
 total charge-density along one line
 
 pseudopotential strength for first ion, spin component:           1
 48.732  51.145  -0.014  -0.003   0.031  -0.017  -0.004   0.038
 51.145  53.681  -0.015  -0.003   0.032  -0.018  -0.004   0.040
 -0.014  -0.015   9.238   0.001  -0.007  11.453   0.001  -0.008
 -0.003  -0.003   0.001   9.235  -0.001   0.001  11.450  -0.002
  0.031   0.032  -0.007  -0.001   9.250  -0.008  -0.002  11.467
 -0.017  -0.018  11.453   0.001  -0.008  14.215   0.001  -0.009
 -0.004  -0.004   0.001  11.450  -0.002   0.001  14.211  -0.002
  0.038   0.040  -0.008  -0.002  11.467  -0.009  -0.002  14.231
 total augmentation occupancy for first ion, spin component:           1
  8.634  -6.569   2.073   0.416  -4.694  -1.116  -0.211   2.563
 -6.569   6.476  -1.956  -0.395   4.428   1.089   0.209  -2.499
  2.073  -1.956   2.997   0.087  -0.887  -0.658  -0.070   0.684
  0.416  -0.395   0.087   2.620  -0.203  -0.070  -0.368   0.145
 -4.694   4.428  -0.887  -0.203   4.668   0.684   0.144  -1.932
 -1.116   1.089  -0.658  -0.070   0.684   0.276   0.041  -0.400
 -0.211   0.209  -0.070  -0.368   0.144   0.041   0.111  -0.071
  2.563  -2.499   0.684   0.145  -1.932  -0.400  -0.071   1.038


------------------------ aborting loop because EDIFF is reached ----------------------------------------


 


 total charge     
 
# of ion     s       p       d       tot
----------------------------------------
  1        1.619   3.451   0.000   5.070
  2        1.619   3.451   0.000   5.070
  3        1.618   3.455   0.000   5.072
  4        1.618   3.454   0.000   5.072
  5        1.618   3.454   0.000   5.072
  6        1.618   3.455   0.000   5.072
  7        1.619   3.451   0.000   5.070
  8        1.619   3.451   0.000   5.070
  9        1.606   3.473   0.000   5.079
 10        1.606   3.472   0.000   5.078
 11        1.606   3.472   0.000   5.078
 12        1.606   3.473   0.000   5.079
 13        1.401   2.075   0.000   3.476
 14        1.401   2.075   0.000   3.476
 15        1.401   2.075   0.000   3.476
 16        1.401   2.075   0.000   3.476
------------------------------------------------
tot       24.974  49.813   0.000  74.787
 
    CHARGE:  cpu time    0.7619: real time    0.7635
    FORLOC:  cpu time    0.0110: real time    0.0111
    FORNL :  cpu time    4.6453: real time    4.6556
    STRESS:  cpu time    8.7107: real time    8.7317
    FORCOR:  cpu time    0.0780: real time    0.0791
    FORHAR:  cpu time    0.0260: real time    0.0259
    MIXING:  cpu time    0.0030: real time    0.0037
    OFIELD:  cpu time    0.0010: real time    0.0006

  FORCE on cell =-STRESS in cart. coord.  units (eV):
  Direction    XX          YY          ZZ          XY          YZ          ZX
  --------------------------------------------------------------------------------------
  Alpha Z    91.20602    91.20602    91.20602
  Ewald   -1122.94865  -835.23383 -1498.09085     0.00000     0.00000  -458.20724
  Hartree   700.91425   936.57910   636.36887    -0.00000    -0.00000  -182.19922
  E(xc)    -411.01907  -411.08580  -413.13189     0.00000     0.00000    -0.93761
  Local   -1648.56505 -2175.62375 -1288.58830    -0.00000     0.00000   606.26217
  n-local   839.09888   845.71887   857.88237     0.02113    -0.02697    -6.21905
  augment  -201.87157  -202.76438  -207.44506     0.00000     0.00000     1.13106
  Kinetic  1753.51265  1751.49051  1822.06634     0.03562    -0.07322    40.31397
  Fock        0.00000     0.00000     0.00000     0.00000     0.00000     0.00000
  -------------------------------------------------------------------------------------
  Total       0.32745     0.28675     0.26748     0.00000     0.00000     0.14409
  in kB       1.05857     0.92699     0.86470     0.00000     0.00000     0.46579
  external pressure =        0.95 kB  Pullay stress =        0.00 kB


 VOLUME and BASIS-vectors are now :
 -----------------------------------------------------------------------------
  energy-cutoff  :      520.00
  volume of cell :      495.61
      direct lattice vectors                 reciprocal lattice vectors
     9.608327617  0.000000000  0.081549578     0.103930522  0.000000000  0.017185825
     0.000000000  6.210825105  0.000000000     0.000000000  0.161009203  0.000000000
    -1.371382978  0.000000000  8.293378166    -0.001021959  0.000000000  0.120409136

  length of vectors
     9.608673682  6.210825105  8.405998613     0.105341853  0.161009203  0.120413473


 FORCES acting on ions
    electron-ion (+dipol)            ewald-force                    non-local-force                 convergence-correction
 -----------------------------------------------------------------------------------------------
   0.171E+03 -.518E+02 -.130E+02   -.174E+03 0.532E+02 0.133E+02   0.284E+01 -.137E+01 -.293E+00   0.157E-01 -.232E-01 -.342E-03
   0.171E+03 0.518E+02 -.130E+02   -.174E+03 -.532E+02 0.133E+02   0.284E+01 0.137E+01 -.293E+00   0.157E-01 0.232E-01 -.342E-03
   0.846E+02 -.116E+03 0.729E+02   -.853E+02 0.118E+03 -.746E+02   0.771E+00 -.256E+01 0.167E+01   -.161E-01 -.261E-01 0.248E-01
   0.846E+02 0.116E+03 0.729E+02   -.853E+02 -.118E+03 -.746E+02   0.771E+00 0.256E+01 0.167E+01   -.161E-01 0.261E-01 0.248E-01
   -.846E+02 -.116E+03 -.729E+02   0.853E+02 0.118E+03 0.746E+02   -.771E+00 -.256E+01 -.167E+01   0.161E-01 -.261E-01 -.248E-01
   -.846E+02 0.116E+03 -.729E+02   0.853E+02 -.118E+03 0.746E+02   -.771E+00 0.256E+01 -.167E+01   0.161E-01 0.261E-01 -.248E-01
   -.171E+03 -.518E+02 0.130E+02   0.174E+03 0.532E+02 -.133E+02   -.284E+01 -.137E+01 0.293E+00   -.157E-01 -.232E-01 0.342E-03
   -.171E+03 0.518E+02 0.130E+02   0.174E+03 -.532E+02 -.133E+02   -.284E+01 0.137E+01 0.293E+00   -.157E-01 0.232E-01 0.342E-03
   -.101E+03 -.117E+03 0.103E+03   0.129E+03 0.148E+03 -.132E+03   -.281E+02 -.311E+02 0.294E+02   -.334E-01 -.363E-01 0.471E-01
   -.101E+03 0.117E+03 0.103E+03   0.129E+03 -.148E+03 -.132E+03   -.281E+02 0.311E+02 0.294E+02   -.334E-01 0.363E-01 0.471E-01
   0.101E+03 -.117E+03 -.103E+03   -.129E+03 0.148E+03 0.132E+03   0.281E+02 -.311E+02 -.294E+02   0.334E-01 -.363E-01 -.471E-01
   0.101E+03 0.117E+03 -.103E+03   -.129E+03 -.148E+03 0.132E+03   0.281E+02 0.311E+02 -.294E+02   0.334E-01 0.363E-01 -.471E-01
   0.582E+02 0.946E+02 -.141E+03   -.471E+02 -.949E+02 0.153E+03   -.111E+02 0.390E+00 -.124E+02   -.913E-01 -.780E-01 0.715E-01
   0.582E+02 -.946E+02 -.141E+03   -.471E+02 0.949E+02 0.153E+03   -.111E+02 -.390E+00 -.124E+02   -.913E-01 0.780E-01 0.715E-01
   -.582E+02 0.946E+02 0.141E+03   0.471E+02 -.949E+02 -.153E+03   0.111E+02 0.390E+00 0.124E+02   0.913E-01 -.780E-01 -.715E-01
   -.582E+02 -.946E+02 0.141E+03   0.471E+02 0.949E+02 -.153E+03   0.111E+02 -.390E+00 0.124E+02   0.913E-01 0.780E-01 -.715E-01
 -----------------------------------------------------------------------------------------------
   0.339E-09 -.898E-10 0.636E-09   0.426E-13 0.142E-13 0.284E-13   0.711E-14 0.000E+00 -.888E-14   0.218E-12 0.138E-13 -.317E-12
 
 
 POSITION                                       TOTAL-FORCE (eV/Angst)
 -----------------------------------------------------------------------------------
      0.22965      1.25510      6.33686         0.002119     -0.000384     -0.001237
      0.91534      1.85031      2.19017         0.002119      0.000384     -0.001237
      2.32305      4.36751      0.86226        -0.000741     -0.004547      0.000707
      1.63736      4.94873      5.00895        -0.000741      0.004547      0.000707
      6.59958      1.26209      3.36598         0.000741     -0.004547     -0.000707
      5.91389      1.84332      7.51267         0.000741      0.004547     -0.000707
      7.32160      4.36052      6.18476        -0.002119     -0.000384      0.001237
      8.00730      4.95572      2.03807        -0.002119      0.000384      0.001237
      2.94083      1.31322      5.32050        -0.020716     -0.015960      0.013340
      3.62653      1.79219      1.17381        -0.020716      0.015960      0.013340
      4.61042      4.41864      7.20112         0.020716     -0.015960     -0.013340
      5.29611      4.89760      3.05443         0.020716      0.015960     -0.013340
      2.15502      0.42874      6.16130         0.015184      0.013802     -0.004553
      2.84071      2.67668      2.01461         0.015184     -0.013802     -0.004553
      5.39623      3.53415      6.36031        -0.015184      0.013802      0.004553
      6.08192      5.78209      2.21362        -0.015184     -0.013802      0.004553
 -----------------------------------------------------------------------------------
    total drift:                                0.000000     -0.000000      0.000000


--------------------------------------------------------------------------------------------------------



  FREE ENERGIE OF THE ION-ELECTRON SYSTEM (eV)
  ---------------------------------------------------
  free  energy   TOTEN  =       -60.54845104 eV

  energy  without entropy=      -60.54845104  energy(sigma->0) =      -60.54845104
 


--------------------------------------------------------------------------------------------------------


    POTLOK:  cpu time    0.1430: real time    0.1433


--------------------------------------------------------------------------------------------------------


     LOOP+:  cpu time  469.5846: real time  471.4388
    4ORBIT:  cpu time    0.0000: real time    0.0000
 


 total charge     
 
# of ion     s       p       d       tot
----------------------------------------
  1        1.619   3.451   0.000   5.070
  2        1.619   3.451   0.000   5.070
  3        1.618   3.455   0.000   5.072
  4        1.618   3.454   0.000   5.072
  5        1.618   3.454   0.000   5.072
  6        1.618   3.455   0.000   5.072
  7        1.619   3.451   0.000   5.070
  8        1.619   3.451   0.000   5.070
  9        1.606   3.473   0.000   5.079
 10        1.606   3.472   0.000   5.078
 11        1.606   3.472   0.000   5.078
 12        1.606   3.473   0.000   5.079
 13        1.401   2.075   0.000   3.476
 14        1.401   2.075   0.000   3.476
 15        1.401   2.075   0.000   3.476
 16        1.401   2.075   0.000   3.476
------------------------------------------------
tot       24.974  49.813   0.000  74.787
 

 total amount of memory used by VASP on root node   149404. kBytes
========================================================================

   base      :      30000. kBytes
   nonl-proj :      52282. kBytes
   fftplans  :      12465. kBytes
   grid      :       6999. kBytes
   one-center:         12. kBytes
   wavefun   :      47646. kBytes
 
  
  
 General timing and accounting informations for this job:
 ========================================================
  
                  Total CPU time used (sec):      516.344
                            User time (sec):      484.448
                          System time (sec):       31.896
                         Elapsed time (sec):      519.181
  
                   Maximum memory used (kb):      255580.
                   Average memory used (kb):           0.
  
                          Minor page faults:       148696
                          Major page faults:            1
                 Voluntary context switches:         2893
