 vasp.5.4.4.18Apr17-6-g9f103f2a35 (build Jan 10 2024 09:48:00) complex          
  
 executed on             LinuxIFC date 2024.04.16  22:16:15
 running on   64 total cores
 distrk:  each k-point on   64 cores,    1 groups
 distr:  one band on NCORES_PER_BAND=   8 cores,    8 groups


--------------------------------------------------------------------------------------------------------


 INCAR:
 POTCAR:    PAW_PBE N 08Apr2002                   
 POTCAR:    PAW_PBE Th 07Sep2000                  
 POTCAR:    PAW_PBE N 08Apr2002                   
   VRHFIN =N: s2p3                                                              
   LEXCH  = PE                                                                  
   EATOM  =   264.5486 eV,   19.4438 Ry                                         
                                                                                
   TITEL  = PAW_PBE N 08Apr2002                                                 
   LULTRA =        F    use ultrasoft PP ?                                      
   IUNSCR =        1    unscreen: 0-lin 1-nonlin 2-no                           
   RPACOR =    1.200    partial core radius                                     
   POMASS =   14.001; ZVAL   =    5.000    mass and valenz                      
   RCORE  =    1.500    outmost cutoff radius                                   
   RWIGS  =    1.400; RWIGS  =    0.741    wigner-seitz radius (au A)           
   ENMAX  =  400.000; ENMIN  =  300.000 eV                                      
   ICORE  =        2    local potential                                         
   LCOR   =        T    correct aug charges                                     
   LPAW   =        T    paw PP                                                  
   EAUG   =  627.112                                                            
   DEXC   =    0.000                                                            
   RMAX   =    1.529    core radius for proj-oper                               
   RAUG   =    1.300    factor for augmentation sphere                          
   RDEP   =    1.514    radius for radial grids                                 
   RDEPT  =    1.338    core radius for aug-charge                              
                                                                                
   Atomic configuration                                                         
    4 entries                                                                   
     n  l   j            E        occ.                                          
     1  0  0.50      -384.7179   2.0000                                         
     2  0  0.50       -18.5828   2.0000                                         
     2  1  0.50        -7.0898   3.0000                                         
     3  2  1.50        -6.8029   0.0000                                         
   Description                                                                  
     l       E           TYP  RCUT    TYP  RCUT                                 
     0    -18.5828119     23  1.200                                             
     0    -13.5018863     23  1.200                                             
     1     -7.0897853     23  1.500                                             
     1      9.5240782     23  1.500                                             
     2     -6.8029130      7  1.500                                             
  local pseudopotential read in
  partial core-charges read in
  partial kinetic energy density read in
  atomic valenz-charges read in
  non local Contribution for L=           0  read in
    real space projection operators read in
  non local Contribution for L=           0  read in
    real space projection operators read in
  non local Contribution for L=           1  read in
    real space projection operators read in
  non local Contribution for L=           1  read in
    real space projection operators read in
    PAW grid and wavefunctions read in
 
   number of l-projection  operators is LMAX  =           4
   number of lm-projection operators is LMMAX =           8
 
 POTCAR:    PAW_PBE Th 07Sep2000                  
   VRHFIN =Th:  [Xe,5d,4f]                                                      
   LEXCH  = PE                                                                  
   EATOM  =   984.7553 eV,   72.3775 Ry                                         
                                                                                
   TITEL  = PAW_PBE Th 07Sep2000                                                
   LULTRA =        F    use ultrasoft PP ?                                      
   IUNSCR =        1    unscreen: 0-lin 1-nonlin 2-no                           
   RPACOR =    2.200    partial core radius                                     
   POMASS =  232.039; ZVAL   =   12.000    mass and valenz                      
   RCORE  =    2.800    outmost cutoff radius                                   
   RWIGS  =    3.000; RWIGS  =    1.588    wigner-seitz radius (au A)           
   ENMAX  =  247.306; ENMIN  =  185.480 eV                                      
   RCLOC  =    2.211    cutoff for local pot                                    
   LCOR   =        T    correct aug charges                                     
   LPAW   =        T    paw PP                                                  
   EAUG   =  535.431                                                            
   DEXC   =    0.000                                                            
   RMAX   =    2.862    core radius for proj-oper                               
   RAUG   =    1.300    factor for augmentation sphere                          
   RDEP   =    2.926    radius for radial grids                                 
   RDEPT  =    2.250    core radius for aug-charge                              
                                                                                
   Atomic configuration                                                         
   18 entries                                                                   
     n  l   j            E        occ.                                          
     1  0  0.50   -109990.1879   2.0000                                         
     2  0  0.50    -20388.0147   2.0000                                         
     2  1  1.50    -17049.6156   6.0000                                         
     3  0  0.50     -5106.5436   2.0000                                         
     3  1  1.50     -4175.1262   6.0000                                         
     3  2  2.50     -3342.8437  10.0000                                         
     4  0  0.50     -1280.8211   2.0000                                         
     4  1  1.50      -976.4859   6.0000                                         
     4  2  2.50      -661.8358  10.0000                                         
     4  3  3.50      -324.9124  14.0000                                         
     5  0  0.50      -278.7726   2.0000                                         
     5  1  1.50      -186.2212   6.0000                                         
     5  2  2.50       -86.9031  10.0000                                         
     6  0  0.50       -43.3059   2.0000                                         
     7  0  0.50        -4.0783   2.0000                                         
     6  1  1.50       -21.4071   6.0000                                         
     6  2  1.50        -2.3664   1.0000                                         
     5  3  2.50        -1.2804   1.0000                                         
   Description                                                                  
     l       E           TYP  RCUT    TYP  RCUT                                 
     0    -43.3059201     23  2.800                                             
     0     -4.0782900     23  2.800                                             
     1    -21.4071032     23  2.500                                             
     1    -22.7676858     23  2.500                                             
     2     -2.3664170     23  2.500                                             
     2      3.0546543     23  2.500                                             
     3     -1.2803910     23  2.800                                             
     3      0.1360583     23  2.800                                             
  local pseudopotential read in
  partial core-charges read in
  partial kinetic energy density read in
  atomic valenz-charges read in
  non local Contribution for L=           0  read in
    real space projection operators read in
  non local Contribution for L=           0  read in
    real space projection operators read in
  non local Contribution for L=           1  read in
    real space projection operators read in
  non local Contribution for L=           1  read in
    real space projection operators read in
  non local Contribution for L=           2  read in
    real space projection operators read in
  non local Contribution for L=           2  read in
    real space projection operators read in
  non local Contribution for L=           3  read in
    real space projection operators read in
  non local Contribution for L=           3  read in
    real space projection operators read in
    PAW grid and wavefunctions read in
 
   number of l-projection  operators is LMAX  =           8
   number of lm-projection operators is LMMAX =          32
 
  PAW_PBE N 08Apr2002                   :
 energy of atom  1       EATOM= -264.5486
 kinetic energy error for atom=    0.0125 (will be added to EATOM!!)
  PAW_PBE Th 07Sep2000                  :
 energy of atom  2       EATOM= -984.7553
 kinetic energy error for atom=    0.0010 (will be added to EATOM!!)
 
 
 POSCAR: N1 Th1                                  
  positions in direct lattice
  velocities in cartesian coordinates
 exchange correlation table for  LEXCH =        8
   RHO(1)=    0.500       N(1)  =     2000
   RHO(2)=  100.500       N(2)  =     4000
 


--------------------------------------------------------------------------------------------------------


 ion  position               nearest neighbor table
   1  0.500  0.500  0.500-   2 2.59   2 2.59   2 2.59   2 2.59   2 2.59   2 2.59
   2  0.000  0.000  0.000-   1 2.59   1 2.59   1 2.59   1 2.59   1 2.59   1 2.59
 
  LATTYP: Found a face centered cubic cell.
 ALAT       =     5.1748526897
  
  Lattice vectors:
  
 A1 = (   0.0000000000,   2.5874263448,   2.5874263448)
 A2 = (   2.5874263448,   0.0000000000,   2.5874263448)
 A3 = (   2.5874263448,   2.5874263448,   0.0000000000)


Analysis of symmetry for initial positions (statically):
=====================================================================
 Subroutine PRICEL returns:
 Original cell was already a primitive cell.
 

 Routine SETGRP: Setting up the symmetry group for a 
 face centered cubic supercell.


 Subroutine GETGRP returns: Found 48 space group operations
 (whereof 48 operations were pure point group operations)
 out of a pool of 48 trial point group operations.


The static configuration has the point symmetry O_h .


Analysis of symmetry for dynamics (positions and initial velocities):
=====================================================================
 Subroutine PRICEL returns:
 Original cell was already a primitive cell.
 

 Routine SETGRP: Setting up the symmetry group for a 
 face centered cubic supercell.


 Subroutine GETGRP returns: Found 48 space group operations
 (whereof 48 operations were pure point group operations)
 out of a pool of 48 trial point group operations.


The dynamic configuration has the point symmetry O_h .


 Subroutine INISYM returns: Found 48 space group operations
 (whereof 48 operations are pure point group operations),
 and found     1 'primitive' translations

 
 
 KPOINTS: 0.040   8   8   8   29  0.040  134    6 
  k-points in reciprocal lattice
Space group operators:
 irot       det(A)        alpha          n_x          n_y          n_z        tau_x        tau_y        tau_z
    1     1.000000     0.000000     1.000000     0.000000     0.000000     0.000000     0.000000     0.000000
    2    -1.000000     0.000000     1.000000     0.000000     0.000000     0.000000     0.000000     0.000000
    3     1.000000   120.000000    -0.577350    -0.577350    -0.577350     0.000000     0.000000     0.000000
    4    -1.000000   120.000000    -0.577350    -0.577350    -0.577350     0.000000     0.000000     0.000000
    5     1.000000   120.000000     0.577350     0.577350     0.577350     0.000000     0.000000     0.000000
    6    -1.000000   120.000000     0.577350     0.577350     0.577350     0.000000     0.000000     0.000000
    7     1.000000    90.000000     0.000000     0.000000    -1.000000     0.000000     0.000000     0.000000
    8    -1.000000    90.000000     0.000000     0.000000    -1.000000     0.000000     0.000000     0.000000
    9     1.000000   180.000000     0.000000     0.707107     0.707107     0.000000     0.000000     0.000000
   10    -1.000000   180.000000     0.000000     0.707107     0.707107     0.000000     0.000000     0.000000
   11     1.000000    90.000000     0.000000     1.000000     0.000000     0.000000     0.000000     0.000000
   12    -1.000000    90.000000     0.000000     1.000000     0.000000     0.000000     0.000000     0.000000
   13     1.000000   179.999999     0.000000     0.000000     1.000000     0.000000     0.000000     0.000000
   14    -1.000000   179.999999     0.000000     0.000000     1.000000     0.000000     0.000000     0.000000
   15     1.000000   120.000000    -0.577350     0.577350     0.577350     0.000000     0.000000     0.000000
   16    -1.000000   120.000000    -0.577350     0.577350     0.577350     0.000000     0.000000     0.000000
   17     1.000000   120.000000    -0.577350     0.577350    -0.577350     0.000000     0.000000     0.000000
   18    -1.000000   120.000000    -0.577350     0.577350    -0.577350     0.000000     0.000000     0.000000
   19     1.000000    90.000000     0.000000     0.000000     1.000000     0.000000     0.000000     0.000000
   20    -1.000000    90.000000     0.000000     0.000000     1.000000     0.000000     0.000000     0.000000
   21     1.000000    90.000000    -1.000000     0.000000     0.000000     0.000000     0.000000     0.000000
   22    -1.000000    90.000000    -1.000000     0.000000     0.000000     0.000000     0.000000     0.000000
   23     1.000000   180.000000     0.707107     0.000000     0.707107     0.000000     0.000000     0.000000
   24    -1.000000   180.000000     0.707107     0.000000     0.707107     0.000000     0.000000     0.000000
   25     1.000000   120.000000     0.577350    -0.577350     0.577350     0.000000     0.000000     0.000000
   26    -1.000000   120.000000     0.577350    -0.577350     0.577350     0.000000     0.000000     0.000000
   27     1.000000   120.000000    -0.577350    -0.577350     0.577350     0.000000     0.000000     0.000000
   28    -1.000000   120.000000    -0.577350    -0.577350     0.577350     0.000000     0.000000     0.000000
   29     1.000000   180.000000     1.000000     0.000000     0.000000     0.000000     0.000000     0.000000
   30    -1.000000   180.000000     1.000000     0.000000     0.000000     0.000000     0.000000     0.000000
   31     1.000000    90.000000     0.000000    -1.000000     0.000000     0.000000     0.000000     0.000000
   32    -1.000000    90.000000     0.000000    -1.000000     0.000000     0.000000     0.000000     0.000000
   33     1.000000   180.000000     0.707107     0.707107     0.000000     0.000000     0.000000     0.000000
   34    -1.000000   180.000000     0.707107     0.707107     0.000000     0.000000     0.000000     0.000000
   35     1.000000    90.000000     1.000000     0.000000     0.000000     0.000000     0.000000     0.000000
   36    -1.000000    90.000000     1.000000     0.000000     0.000000     0.000000     0.000000     0.000000
   37     1.000000   120.000000     0.577350    -0.577350    -0.577350     0.000000     0.000000     0.000000
   38    -1.000000   120.000000     0.577350    -0.577350    -0.577350     0.000000     0.000000     0.000000
   39     1.000000   180.000000     0.000000     1.000000     0.000000     0.000000     0.000000     0.000000
   40    -1.000000   180.000000     0.000000     1.000000     0.000000     0.000000     0.000000     0.000000
   41     1.000000   120.000000     0.577350     0.577350    -0.577350     0.000000     0.000000     0.000000
   42    -1.000000   120.000000     0.577350     0.577350    -0.577350     0.000000     0.000000     0.000000
   43     1.000000   180.000000     0.000000    -0.707107     0.707107     0.000000     0.000000     0.000000
   44    -1.000000   180.000000     0.000000    -0.707107     0.707107     0.000000     0.000000     0.000000
   45     1.000000   180.000000     0.707107    -0.707107     0.000000     0.000000     0.000000     0.000000
   46    -1.000000   180.000000     0.707107    -0.707107     0.000000     0.000000     0.000000     0.000000
   47     1.000000   180.000000     0.707107     0.000000    -0.707107     0.000000     0.000000     0.000000
   48    -1.000000   180.000000     0.707107     0.000000    -0.707107     0.000000     0.000000     0.000000

 ----------------------------------------------------------------------------- 
|                                                                             |
|           W    W    AA    RRRRR   N    N  II  N    N   GGGG   !!!           |
|           W    W   A  A   R    R  NN   N  II  NN   N  G    G  !!!           |
|           W    W  A    A  R    R  N N  N  II  N N  N  G       !!!           |
|           W WW W  AAAAAA  RRRRR   N  N N  II  N  N N  G  GGG   !            |
|           WW  WW  A    A  R   R   N   NN  II  N   NN  G    G                |
|           W    W  A    A  R    R  N    N  II  N    N   GGGG   !!!           |
|                                                                             |
|      Your generating k-point grid is not commensurate to the symmetry       |
|      of the lattice.  This can cause   slow convergence with respect        |
|      to k-points for HF type calculations                                   |
|      suggested SOLUTIONS:                                                   |
|       ) if not already the case, use automatic k-point generation           |
|       ) shift your grid to Gamma (G) (e.g. required for hex or fcc lattice) |
|                                                                             |
 ----------------------------------------------------------------------------- 

 
 Subroutine IBZKPT_HF returns following result:
 ==============================================
 
 Found    646 k-points in 1st BZ
 the following    646 k-points will be used (e.g. in the exchange kernel)
 Following reciprocal coordinates:   # in IRBZ
  0.000000  0.000000  0.000000    0.00195312   1 t-inv F
  0.125000  0.000000  0.000000    0.00195312   2 t-inv F
  0.250000  0.000000  0.000000    0.00195312   3 t-inv F
  0.375000  0.000000  0.000000    0.00195312   4 t-inv F
  0.500000  0.000000  0.000000    0.00195312   5 t-inv F
  0.125000  0.125000  0.000000    0.00195312   6 t-inv F
  0.250000  0.125000  0.000000    0.00195312   7 t-inv F
  0.375000  0.125000  0.000000    0.00195312   8 t-inv F
  0.500000  0.125000  0.000000    0.00195312   9 t-inv F
 -0.375000  0.125000  0.000000    0.00195312  10 t-inv F
 -0.250000  0.125000  0.000000    0.00195312  11 t-inv F
 -0.125000  0.125000  0.000000    0.00195312  12 t-inv F
  0.250000  0.250000  0.000000    0.00195312  13 t-inv F
  0.375000  0.250000  0.000000    0.00195312  14 t-inv F
  0.500000  0.250000  0.000000    0.00195312  15 t-inv F
 -0.375000  0.250000  0.000000    0.00195312  16 t-inv F
 -0.250000  0.250000  0.000000    0.00195312  17 t-inv F
  0.375000  0.375000  0.000000    0.00195312  18 t-inv F
  0.500000  0.375000  0.000000    0.00195312  19 t-inv F
 -0.375000  0.375000  0.000000    0.00195312  20 t-inv F
  0.500000  0.500000  0.000000    0.00195312  21 t-inv F
  0.375000  0.250000  0.125000    0.00195312  22 t-inv F
  0.500000  0.250000  0.125000    0.00195312  23 t-inv F
 -0.375000  0.250000  0.125000    0.00195312  24 t-inv F
  0.500000  0.375000  0.125000    0.00195312  25 t-inv F
 -0.375000  0.375000  0.125000    0.00195312  26 t-inv F
 -0.250000  0.375000  0.125000    0.00195312  27 t-inv F
 -0.375000  0.500000  0.125000    0.00195312  28 t-inv F
 -0.250000  0.500000  0.250000    0.00195312  29 t-inv F
  0.000000  0.000000  0.000000    0.00000000  30 t-inv F
  0.017241  0.000000  0.017241    0.00000000  31 t-inv F
  0.034483  0.000000  0.034483    0.00000000  32 t-inv F
  0.051724  0.000000  0.051724    0.00000000  33 t-inv F
  0.068966  0.000000  0.068966    0.00000000  34 t-inv F
  0.086207  0.000000  0.086207    0.00000000  35 t-inv F
  0.103448  0.000000  0.103448    0.00000000  36 t-inv F
  0.120690  0.000000  0.120690    0.00000000  37 t-inv F
  0.137931  0.000000  0.137931    0.00000000  38 t-inv F
  0.155172  0.000000  0.155172    0.00000000  39 t-inv F
  0.172414  0.000000  0.172414    0.00000000  40 t-inv F
  0.189655  0.000000  0.189655    0.00000000  41 t-inv F
  0.206897  0.000000  0.206897    0.00000000  42 t-inv F
  0.224138  0.000000  0.224138    0.00000000  43 t-inv F
  0.241379  0.000000  0.241379    0.00000000  44 t-inv F
  0.258621  0.000000  0.258621    0.00000000  45 t-inv F
  0.275862  0.000000  0.275862    0.00000000  46 t-inv F
  0.293103  0.000000  0.293103    0.00000000  47 t-inv F
  0.310345  0.000000  0.310345    0.00000000  48 t-inv F
  0.327586  0.000000  0.327586    0.00000000  49 t-inv F
  0.344828  0.000000  0.344828    0.00000000  50 t-inv F
  0.362069  0.000000  0.362069    0.00000000  51 t-inv F
  0.379310  0.000000  0.379310    0.00000000  52 t-inv F
  0.396552  0.000000  0.396552    0.00000000  53 t-inv F
  0.413793  0.000000  0.413793    0.00000000  54 t-inv F
  0.431034  0.000000  0.431034    0.00000000  55 t-inv F
  0.448276  0.000000  0.448276    0.00000000  56 t-inv F
  0.465517  0.000000  0.465517    0.00000000  57 t-inv F
  0.482759  0.000000  0.482759    0.00000000  58 t-inv F
  0.500000  0.000000  0.500000    0.00000000  59 t-inv F
  0.500000  0.000000  0.500000    0.00000000  60 t-inv F
  0.513889  0.027778  0.513889    0.00000000  61 t-inv F
  0.527778  0.055556  0.527778    0.00000000  62 t-inv F
  0.541667  0.083333  0.541667    0.00000000  63 t-inv F
  0.555556  0.111111  0.555556    0.00000000  64 t-inv F
  0.569444  0.138889  0.569444    0.00000000  65 t-inv F
  0.583333  0.166667  0.583333    0.00000000  66 t-inv F
  0.597222  0.194444  0.597222    0.00000000  67 t-inv F
  0.611111  0.222222  0.611111    0.00000000  68 t-inv F
  0.625000  0.250000  0.625000    0.00000000  69 t-inv F
  0.375000  0.375000  0.750000    0.00000000  70 t-inv F
  0.362903  0.362903  0.725806    0.00000000  71 t-inv F
  0.350806  0.350806  0.701613    0.00000000  72 t-inv F
  0.338710  0.338710  0.677419    0.00000000  73 t-inv F
  0.326613  0.326613  0.653226    0.00000000  74 t-inv F
  0.314516  0.314516  0.629032    0.00000000  75 t-inv F
  0.302419  0.302419  0.604839    0.00000000  76 t-inv F
  0.290323  0.290323  0.580645    0.00000000  77 t-inv F
  0.278226  0.278226  0.556452    0.00000000  78 t-inv F
  0.266129  0.266129  0.532258    0.00000000  79 t-inv F
  0.254032  0.254032  0.508065    0.00000000  80 t-inv F
  0.241935  0.241935  0.483871    0.00000000  81 t-inv F
  0.229839  0.229839  0.459677    0.00000000  82 t-inv F
  0.217742  0.217742  0.435484    0.00000000  83 t-inv F
  0.205645  0.205645  0.411290    0.00000000  84 t-inv F
  0.193548  0.193548  0.387097    0.00000000  85 t-inv F
  0.181452  0.181452  0.362903    0.00000000  86 t-inv F
  0.169355  0.169355  0.338710    0.00000000  87 t-inv F
  0.157258  0.157258  0.314516    0.00000000  88 t-inv F
  0.145161  0.145161  0.290323    0.00000000  89 t-inv F
  0.133065  0.133065  0.266129    0.00000000  90 t-inv F
  0.120968  0.120968  0.241935    0.00000000  91 t-inv F
  0.108871  0.108871  0.217742    0.00000000  92 t-inv F
  0.096774  0.096774  0.193548    0.00000000  93 t-inv F
  0.084677  0.084677  0.169355    0.00000000  94 t-inv F
  0.072581  0.072581  0.145161    0.00000000  95 t-inv F
  0.060484  0.060484  0.120968    0.00000000  96 t-inv F
  0.048387  0.048387  0.096774    0.00000000  97 t-inv F
  0.036290  0.036290  0.072581    0.00000000  98 t-inv F
  0.024194  0.024194  0.048387    0.00000000  99 t-inv F
  0.012097  0.012097  0.024194    0.00000000 100 t-inv F
  0.000000  0.000000  0.000000    0.00000000 101 t-inv F
  0.000000  0.000000  0.000000    0.00000000 102 t-inv F
  0.020000  0.020000  0.020000    0.00000000 103 t-inv F
  0.040000  0.040000  0.040000    0.00000000 104 t-inv F
  0.060000  0.060000  0.060000    0.00000000 105 t-inv F
  0.080000  0.080000  0.080000    0.00000000 106 t-inv F
  0.100000  0.100000  0.100000    0.00000000 107 t-inv F
  0.120000  0.120000  0.120000    0.00000000 108 t-inv F
  0.140000  0.140000  0.140000    0.00000000 109 t-inv F
  0.160000  0.160000  0.160000    0.00000000 110 t-inv F
  0.180000  0.180000  0.180000    0.00000000 111 t-inv F
  0.200000  0.200000  0.200000    0.00000000 112 t-inv F
  0.220000  0.220000  0.220000    0.00000000 113 t-inv F
  0.240000  0.240000  0.240000    0.00000000 114 t-inv F
  0.260000  0.260000  0.260000    0.00000000 115 t-inv F
  0.280000  0.280000  0.280000    0.00000000 116 t-inv F
  0.300000  0.300000  0.300000    0.00000000 117 t-inv F
  0.320000  0.320000  0.320000    0.00000000 118 t-inv F
  0.340000  0.340000  0.340000    0.00000000 119 t-inv F
  0.360000  0.360000  0.360000    0.00000000 120 t-inv F
  0.380000  0.380000  0.380000    0.00000000 121 t-inv F
  0.400000  0.400000  0.400000    0.00000000 122 t-inv F
  0.420000  0.420000  0.420000    0.00000000 123 t-inv F
  0.440000  0.440000  0.440000    0.00000000 124 t-inv F
  0.460000  0.460000  0.460000    0.00000000 125 t-inv F
  0.480000  0.480000  0.480000    0.00000000 126 t-inv F
  0.500000  0.500000  0.500000    0.00000000 127 t-inv F
  0.500000  0.500000  0.500000    0.00000000 128 t-inv F
  0.500000  0.487500  0.512500    0.00000000 129 t-inv F
  0.500000  0.475000  0.525000    0.00000000 130 t-inv F
  0.500000  0.462500  0.537500    0.00000000 131 t-inv F
  0.500000  0.450000  0.550000    0.00000000 132 t-inv F
  0.500000  0.437500  0.562500    0.00000000 133 t-inv F
  0.500000  0.425000  0.575000    0.00000000 134 t-inv F
  0.500000  0.412500  0.587500    0.00000000 135 t-inv F
  0.500000  0.400000  0.600000    0.00000000 136 t-inv F
  0.500000  0.387500  0.612500    0.00000000 137 t-inv F
  0.500000  0.375000  0.625000    0.00000000 138 t-inv F
  0.500000  0.362500  0.637500    0.00000000 139 t-inv F
  0.500000  0.350000  0.650000    0.00000000 140 t-inv F
  0.500000  0.337500  0.662500    0.00000000 141 t-inv F
  0.500000  0.325000  0.675000    0.00000000 142 t-inv F
  0.500000  0.312500  0.687500    0.00000000 143 t-inv F
  0.500000  0.300000  0.700000    0.00000000 144 t-inv F
  0.500000  0.287500  0.712500    0.00000000 145 t-inv F
  0.500000  0.275000  0.725000    0.00000000 146 t-inv F
  0.500000  0.262500  0.737500    0.00000000 147 t-inv F
  0.500000  0.250000  0.750000    0.00000000 148 t-inv F
  0.500000  0.250000  0.750000    0.00000000 149 t-inv F
  0.500000  0.232143  0.732143    0.00000000 150 t-inv F
  0.500000  0.214286  0.714286    0.00000000 151 t-inv F
  0.500000  0.196429  0.696429    0.00000000 152 t-inv F
  0.500000  0.178571  0.678571    0.00000000 153 t-inv F
  0.500000  0.160714  0.660714    0.00000000 154 t-inv F
  0.500000  0.142857  0.642857    0.00000000 155 t-inv F
  0.500000  0.125000  0.625000    0.00000000 156 t-inv F
  0.500000  0.107143  0.607143    0.00000000 157 t-inv F
  0.500000  0.089286  0.589286    0.00000000 158 t-inv F
  0.500000  0.071429  0.571429    0.00000000 159 t-inv F
  0.500000  0.053571  0.553571    0.00000000 160 t-inv F
  0.500000  0.035714  0.535714    0.00000000 161 t-inv F
  0.500000  0.017857  0.517857    0.00000000 162 t-inv F
  0.500000  0.000000  0.500000    0.00000000 163 t-inv F
 -0.125000  0.000000  0.000000    0.00195312   2 t-inv F
  0.000000  0.125000  0.000000    0.00195312   2 t-inv F
  0.000000 -0.125000  0.000000    0.00195312   2 t-inv F
  0.000000  0.000000  0.125000    0.00195312   2 t-inv F
  0.000000  0.000000 -0.125000    0.00195312   2 t-inv F
  0.125000  0.125000  0.125000    0.00195312   2 t-inv F
 -0.125000 -0.125000 -0.125000    0.00195312   2 t-inv F
 -0.250000  0.000000  0.000000    0.00195312   3 t-inv F
  0.000000  0.250000  0.000000    0.00195312   3 t-inv F
  0.000000 -0.250000  0.000000    0.00195312   3 t-inv F
  0.000000  0.000000  0.250000    0.00195312   3 t-inv F
  0.000000  0.000000 -0.250000    0.00195312   3 t-inv F
  0.250000  0.250000  0.250000    0.00195312   3 t-inv F
 -0.250000 -0.250000 -0.250000    0.00195312   3 t-inv F
 -0.375000  0.000000  0.000000    0.00195312   4 t-inv F
  0.000000  0.375000  0.000000    0.00195312   4 t-inv F
  0.000000 -0.375000  0.000000    0.00195312   4 t-inv F
  0.000000  0.000000  0.375000    0.00195312   4 t-inv F
  0.000000  0.000000 -0.375000    0.00195312   4 t-inv F
  0.375000  0.375000  0.375000    0.00195312   4 t-inv F
 -0.375000 -0.375000 -0.375000    0.00195312   4 t-inv F
  0.000000  0.500000  0.000000    0.00195312   5 t-inv F
  0.000000  0.000000  0.500000    0.00195312   5 t-inv F
  0.500000  0.500000  0.500000    0.00195312   5 t-inv F
 -0.125000 -0.125000  0.000000    0.00195312   6 t-inv F
  0.000000  0.125000  0.125000    0.00195312   6 t-inv F
  0.000000 -0.125000 -0.125000    0.00195312   6 t-inv F
  0.125000  0.000000  0.125000    0.00195312   6 t-inv F
 -0.125000  0.000000 -0.125000    0.00195312   6 t-inv F
 -0.250000 -0.125000  0.000000    0.00195312   7 t-inv F
  0.000000  0.250000  0.125000    0.00195312   7 t-inv F
  0.000000 -0.250000 -0.125000    0.00195312   7 t-inv F
  0.125000  0.000000  0.250000    0.00195312   7 t-inv F
 -0.125000  0.000000 -0.250000    0.00195312   7 t-inv F
  0.125000  0.125000 -0.125000    0.00195312   7 t-inv F
 -0.125000 -0.125000  0.125000    0.00195312   7 t-inv F
  0.250000  0.125000  0.250000    0.00195312   7 t-inv F
 -0.250000 -0.125000 -0.250000    0.00195312   7 t-inv F
  0.125000  0.250000  0.000000    0.00195312   7 t-inv F
 -0.125000 -0.250000  0.000000    0.00195312   7 t-inv F
  0.125000 -0.125000 -0.125000    0.00195312   7 t-inv F
 -0.125000  0.125000  0.125000    0.00195312   7 t-inv F
  0.250000  0.250000  0.125000    0.00195312   7 t-inv F
 -0.250000 -0.250000 -0.125000    0.00195312   7 t-inv F
  0.000000  0.125000  0.250000    0.00195312   7 t-inv F
  0.000000 -0.125000 -0.250000    0.00195312   7 t-inv F
 -0.125000  0.125000 -0.125000    0.00195312   7 t-inv F
  0.125000 -0.125000  0.125000    0.00195312   7 t-inv F
  0.125000  0.250000  0.250000    0.00195312   7 t-inv F
 -0.125000 -0.250000 -0.250000    0.00195312   7 t-inv F
  0.250000  0.000000  0.125000    0.00195312   7 t-inv F
 -0.250000  0.000000 -0.125000    0.00195312   7 t-inv F
 -0.375000 -0.125000  0.000000    0.00195312   8 t-inv F
  0.000000  0.375000  0.125000    0.00195312   8 t-inv F
  0.000000 -0.375000 -0.125000    0.00195312   8 t-inv F
  0.125000  0.000000  0.375000    0.00195312   8 t-inv F
 -0.125000  0.000000 -0.375000    0.00195312   8 t-inv F
  0.125000  0.125000 -0.250000    0.00195312   8 t-inv F
 -0.125000 -0.125000  0.250000    0.00195312   8 t-inv F
  0.375000  0.250000  0.375000    0.00195312   8 t-inv F
 -0.375000 -0.250000 -0.375000    0.00195312   8 t-inv F
  0.125000  0.375000  0.000000    0.00195312   8 t-inv F
 -0.125000 -0.375000  0.000000    0.00195312   8 t-inv F
  0.250000 -0.125000 -0.125000    0.00195312   8 t-inv F
 -0.250000  0.125000  0.125000    0.00195312   8 t-inv F
  0.375000  0.375000  0.250000    0.00195312   8 t-inv F
 -0.375000 -0.375000 -0.250000    0.00195312   8 t-inv F
  0.000000  0.125000  0.375000    0.00195312   8 t-inv F
  0.000000 -0.125000 -0.375000    0.00195312   8 t-inv F
 -0.125000  0.250000 -0.125000    0.00195312   8 t-inv F
  0.125000 -0.250000  0.125000    0.00195312   8 t-inv F
  0.250000  0.375000  0.375000    0.00195312   8 t-inv F
 -0.250000 -0.375000 -0.375000    0.00195312   8 t-inv F
  0.375000  0.000000  0.125000    0.00195312   8 t-inv F
 -0.375000  0.000000 -0.125000    0.00195312   8 t-inv F
 -0.500000 -0.125000  0.000000    0.00195312   9 t-inv F
  0.000000  0.500000  0.125000    0.00195312   9 t-inv F
  0.000000 -0.500000 -0.125000    0.00195312   9 t-inv F
  0.125000  0.000000  0.500000    0.00195312   9 t-inv F
 -0.125000  0.000000 -0.500000    0.00195312   9 t-inv F
  0.125000  0.125000 -0.375000    0.00195312   9 t-inv F
 -0.125000 -0.125000  0.375000    0.00195312   9 t-inv F
  0.500000  0.375000  0.500000    0.00195312   9 t-inv F
 -0.500000 -0.375000 -0.500000    0.00195312   9 t-inv F
  0.125000  0.500000  0.000000    0.00195312   9 t-inv F
 -0.125000 -0.500000  0.000000    0.00195312   9 t-inv F
  0.375000 -0.125000 -0.125000    0.00195312   9 t-inv F
 -0.375000  0.125000  0.125000    0.00195312   9 t-inv F
  0.500000  0.500000  0.375000    0.00195312   9 t-inv F
 -0.500000 -0.500000 -0.375000    0.00195312   9 t-inv F
  0.000000  0.125000  0.500000    0.00195312   9 t-inv F
  0.000000 -0.125000 -0.500000    0.00195312   9 t-inv F
 -0.125000  0.375000 -0.125000    0.00195312   9 t-inv F
  0.125000 -0.375000  0.125000    0.00195312   9 t-inv F
  0.375000  0.500000  0.500000    0.00195312   9 t-inv F
 -0.375000 -0.500000 -0.500000    0.00195312   9 t-inv F
  0.500000  0.000000  0.125000    0.00195312   9 t-inv F
 -0.500000  0.000000 -0.125000    0.00195312   9 t-inv F
  0.375000 -0.125000  0.000000    0.00195312  10 t-inv F
  0.000000 -0.375000  0.125000    0.00195312  10 t-inv F
  0.000000  0.375000 -0.125000    0.00195312  10 t-inv F
  0.125000  0.000000 -0.375000    0.00195312  10 t-inv F
 -0.125000  0.000000  0.375000    0.00195312  10 t-inv F
  0.125000  0.125000  0.500000    0.00195312  10 t-inv F
 -0.125000 -0.125000 -0.500000    0.00195312  10 t-inv F
 -0.375000 -0.500000 -0.375000    0.00195312  10 t-inv F
  0.375000  0.500000  0.375000    0.00195312  10 t-inv F
  0.125000 -0.375000  0.000000    0.00195312  10 t-inv F
 -0.125000  0.375000  0.000000    0.00195312  10 t-inv F
 -0.500000 -0.125000 -0.125000    0.00195312  10 t-inv F
  0.500000  0.125000  0.125000    0.00195312  10 t-inv F
 -0.375000 -0.375000 -0.500000    0.00195312  10 t-inv F
  0.375000  0.375000  0.500000    0.00195312  10 t-inv F
  0.000000  0.125000 -0.375000    0.00195312  10 t-inv F
  0.000000 -0.125000  0.375000    0.00195312  10 t-inv F
 -0.125000 -0.500000 -0.125000    0.00195312  10 t-inv F
  0.125000  0.500000  0.125000    0.00195312  10 t-inv F
 -0.500000 -0.375000 -0.375000    0.00195312  10 t-inv F
  0.500000  0.375000  0.375000    0.00195312  10 t-inv F
 -0.375000  0.000000  0.125000    0.00195312  10 t-inv F
  0.375000  0.000000 -0.125000    0.00195312  10 t-inv F
  0.250000 -0.125000  0.000000    0.00195312  11 t-inv F
  0.000000 -0.250000  0.125000    0.00195312  11 t-inv F
  0.000000  0.250000 -0.125000    0.00195312  11 t-inv F
  0.125000  0.000000 -0.250000    0.00195312  11 t-inv F
 -0.125000  0.000000  0.250000    0.00195312  11 t-inv F
  0.125000  0.125000  0.375000    0.00195312  11 t-inv F
 -0.125000 -0.125000 -0.375000    0.00195312  11 t-inv F
 -0.250000 -0.375000 -0.250000    0.00195312  11 t-inv F
  0.250000  0.375000  0.250000    0.00195312  11 t-inv F
  0.125000 -0.250000  0.000000    0.00195312  11 t-inv F
 -0.125000  0.250000  0.000000    0.00195312  11 t-inv F
 -0.375000 -0.125000 -0.125000    0.00195312  11 t-inv F
  0.375000  0.125000  0.125000    0.00195312  11 t-inv F
 -0.250000 -0.250000 -0.375000    0.00195312  11 t-inv F
  0.250000  0.250000  0.375000    0.00195312  11 t-inv F
  0.000000  0.125000 -0.250000    0.00195312  11 t-inv F
  0.000000 -0.125000  0.250000    0.00195312  11 t-inv F
 -0.125000 -0.375000 -0.125000    0.00195312  11 t-inv F
  0.125000  0.375000  0.125000    0.00195312  11 t-inv F
 -0.375000 -0.250000 -0.250000    0.00195312  11 t-inv F
  0.375000  0.250000  0.250000    0.00195312  11 t-inv F
 -0.250000  0.000000  0.125000    0.00195312  11 t-inv F
  0.250000  0.000000 -0.125000    0.00195312  11 t-inv F
  0.125000 -0.125000  0.000000    0.00195312  12 t-inv F
  0.000000 -0.125000  0.125000    0.00195312  12 t-inv F
  0.000000  0.125000 -0.125000    0.00195312  12 t-inv F
  0.125000  0.000000 -0.125000    0.00195312  12 t-inv F
 -0.125000  0.000000  0.125000    0.00195312  12 t-inv F
  0.125000  0.125000  0.250000    0.00195312  12 t-inv F
 -0.125000 -0.125000 -0.250000    0.00195312  12 t-inv F
 -0.125000 -0.250000 -0.125000    0.00195312  12 t-inv F
  0.125000  0.250000  0.125000    0.00195312  12 t-inv F
 -0.250000 -0.125000 -0.125000    0.00195312  12 t-inv F
  0.250000  0.125000  0.125000    0.00195312  12 t-inv F
 -0.250000 -0.250000  0.000000    0.00195312  13 t-inv F
  0.000000  0.250000  0.250000    0.00195312  13 t-inv F
  0.000000 -0.250000 -0.250000    0.00195312  13 t-inv F
  0.250000  0.000000  0.250000    0.00195312  13 t-inv F
 -0.250000  0.000000 -0.250000    0.00195312  13 t-inv F
 -0.375000 -0.250000  0.000000    0.00195312  14 t-inv F
  0.000000  0.375000  0.250000    0.00195312  14 t-inv F
  0.000000 -0.375000 -0.250000    0.00195312  14 t-inv F
  0.250000  0.000000  0.375000    0.00195312  14 t-inv F
 -0.250000  0.000000 -0.375000    0.00195312  14 t-inv F
  0.250000  0.250000 -0.125000    0.00195312  14 t-inv F
 -0.250000 -0.250000  0.125000    0.00195312  14 t-inv F
  0.375000  0.125000  0.375000    0.00195312  14 t-inv F
 -0.375000 -0.125000 -0.375000    0.00195312  14 t-inv F
  0.250000  0.375000  0.000000    0.00195312  14 t-inv F
 -0.250000 -0.375000  0.000000    0.00195312  14 t-inv F
  0.125000 -0.250000 -0.250000    0.00195312  14 t-inv F
 -0.125000  0.250000  0.250000    0.00195312  14 t-inv F
  0.375000  0.375000  0.125000    0.00195312  14 t-inv F
 -0.375000 -0.375000 -0.125000    0.00195312  14 t-inv F
  0.000000  0.250000  0.375000    0.00195312  14 t-inv F
  0.000000 -0.250000 -0.375000    0.00195312  14 t-inv F
 -0.250000  0.125000 -0.250000    0.00195312  14 t-inv F
  0.250000 -0.125000  0.250000    0.00195312  14 t-inv F
  0.125000  0.375000  0.375000    0.00195312  14 t-inv F
 -0.125000 -0.375000 -0.375000    0.00195312  14 t-inv F
  0.375000  0.000000  0.250000    0.00195312  14 t-inv F
 -0.375000  0.000000 -0.250000    0.00195312  14 t-inv F
 -0.500000 -0.250000  0.000000    0.00195312  15 t-inv F
  0.000000  0.500000  0.250000    0.00195312  15 t-inv F
  0.000000 -0.500000 -0.250000    0.00195312  15 t-inv F
  0.250000  0.000000  0.500000    0.00195312  15 t-inv F
 -0.250000  0.000000 -0.500000    0.00195312  15 t-inv F
  0.250000  0.250000 -0.250000    0.00195312  15 t-inv F
 -0.250000 -0.250000  0.250000    0.00195312  15 t-inv F
  0.500000  0.250000  0.500000    0.00195312  15 t-inv F
 -0.500000 -0.250000 -0.500000    0.00195312  15 t-inv F
  0.250000  0.500000  0.000000    0.00195312  15 t-inv F
 -0.250000 -0.500000  0.000000    0.00195312  15 t-inv F
  0.250000 -0.250000 -0.250000    0.00195312  15 t-inv F
 -0.250000  0.250000  0.250000    0.00195312  15 t-inv F
  0.500000  0.500000  0.250000    0.00195312  15 t-inv F
 -0.500000 -0.500000 -0.250000    0.00195312  15 t-inv F
  0.000000  0.250000  0.500000    0.00195312  15 t-inv F
  0.000000 -0.250000 -0.500000    0.00195312  15 t-inv F
 -0.250000  0.250000 -0.250000    0.00195312  15 t-inv F
  0.250000 -0.250000  0.250000    0.00195312  15 t-inv F
  0.250000  0.500000  0.500000    0.00195312  15 t-inv F
 -0.250000 -0.500000 -0.500000    0.00195312  15 t-inv F
  0.500000  0.000000  0.250000    0.00195312  15 t-inv F
 -0.500000  0.000000 -0.250000    0.00195312  15 t-inv F
  0.375000 -0.250000  0.000000    0.00195312  16 t-inv F
  0.000000 -0.375000  0.250000    0.00195312  16 t-inv F
  0.000000  0.375000 -0.250000    0.00195312  16 t-inv F
  0.250000  0.000000 -0.375000    0.00195312  16 t-inv F
 -0.250000  0.000000  0.375000    0.00195312  16 t-inv F
  0.250000  0.250000  0.625000    0.00195312  16 t-inv F
 -0.250000 -0.250000 -0.625000    0.00195312  16 t-inv F
 -0.375000 -0.625000 -0.375000    0.00195312  16 t-inv F
  0.375000  0.625000  0.375000    0.00195312  16 t-inv F
  0.250000 -0.375000  0.000000    0.00195312  16 t-inv F
 -0.250000  0.375000  0.000000    0.00195312  16 t-inv F
 -0.625000 -0.250000 -0.250000    0.00195312  16 t-inv F
  0.625000  0.250000  0.250000    0.00195312  16 t-inv F
 -0.375000 -0.375000 -0.625000    0.00195312  16 t-inv F
  0.375000  0.375000  0.625000    0.00195312  16 t-inv F
  0.000000  0.250000 -0.375000    0.00195312  16 t-inv F
  0.000000 -0.250000  0.375000    0.00195312  16 t-inv F
 -0.250000 -0.625000 -0.250000    0.00195312  16 t-inv F
  0.250000  0.625000  0.250000    0.00195312  16 t-inv F
 -0.625000 -0.375000 -0.375000    0.00195312  16 t-inv F
  0.625000  0.375000  0.375000    0.00195312  16 t-inv F
 -0.375000  0.000000  0.250000    0.00195312  16 t-inv F
  0.375000  0.000000 -0.250000    0.00195312  16 t-inv F
  0.250000 -0.250000  0.000000    0.00195312  17 t-inv F
  0.000000 -0.250000  0.250000    0.00195312  17 t-inv F
  0.000000  0.250000 -0.250000    0.00195312  17 t-inv F
  0.250000  0.000000 -0.250000    0.00195312  17 t-inv F
 -0.250000  0.000000  0.250000    0.00195312  17 t-inv F
  0.250000  0.250000  0.500000    0.00195312  17 t-inv F
 -0.250000 -0.250000 -0.500000    0.00195312  17 t-inv F
 -0.250000 -0.500000 -0.250000    0.00195312  17 t-inv F
  0.250000  0.500000  0.250000    0.00195312  17 t-inv F
 -0.500000 -0.250000 -0.250000    0.00195312  17 t-inv F
  0.500000  0.250000  0.250000    0.00195312  17 t-inv F
 -0.375000 -0.375000  0.000000    0.00195312  18 t-inv F
  0.000000  0.375000  0.375000    0.00195312  18 t-inv F
  0.000000 -0.375000 -0.375000    0.00195312  18 t-inv F
  0.375000  0.000000  0.375000    0.00195312  18 t-inv F
 -0.375000  0.000000 -0.375000    0.00195312  18 t-inv F
 -0.500000 -0.375000  0.000000    0.00195312  19 t-inv F
  0.000000  0.500000  0.375000    0.00195312  19 t-inv F
  0.000000 -0.500000 -0.375000    0.00195312  19 t-inv F
  0.375000  0.000000  0.500000    0.00195312  19 t-inv F
 -0.375000  0.000000 -0.500000    0.00195312  19 t-inv F
  0.375000  0.375000 -0.125000    0.00195312  19 t-inv F
 -0.375000 -0.375000  0.125000    0.00195312  19 t-inv F
  0.500000  0.125000  0.500000    0.00195312  19 t-inv F
 -0.500000 -0.125000 -0.500000    0.00195312  19 t-inv F
  0.375000  0.500000  0.000000    0.00195312  19 t-inv F
 -0.375000 -0.500000  0.000000    0.00195312  19 t-inv F
  0.125000 -0.375000 -0.375000    0.00195312  19 t-inv F
 -0.125000  0.375000  0.375000    0.00195312  19 t-inv F
  0.500000  0.500000  0.125000    0.00195312  19 t-inv F
 -0.500000 -0.500000 -0.125000    0.00195312  19 t-inv F
  0.000000  0.375000  0.500000    0.00195312  19 t-inv F
  0.000000 -0.375000 -0.500000    0.00195312  19 t-inv F
 -0.375000  0.125000 -0.375000    0.00195312  19 t-inv F
  0.375000 -0.125000  0.375000    0.00195312  19 t-inv F
  0.125000  0.500000  0.500000    0.00195312  19 t-inv F
 -0.125000 -0.500000 -0.500000    0.00195312  19 t-inv F
  0.500000  0.000000  0.375000    0.00195312  19 t-inv F
 -0.500000  0.000000 -0.375000    0.00195312  19 t-inv F
  0.375000 -0.375000  0.000000    0.00195312  20 t-inv F
  0.000000 -0.375000  0.375000    0.00195312  20 t-inv F
  0.000000  0.375000 -0.375000    0.00195312  20 t-inv F
  0.375000  0.000000 -0.375000    0.00195312  20 t-inv F
 -0.375000  0.000000  0.375000    0.00195312  20 t-inv F
  0.375000  0.375000  0.750000    0.00195312  20 t-inv F
 -0.375000 -0.375000 -0.750000    0.00195312  20 t-inv F
 -0.375000 -0.750000 -0.375000    0.00195312  20 t-inv F
  0.375000  0.750000  0.375000    0.00195312  20 t-inv F
 -0.750000 -0.375000 -0.375000    0.00195312  20 t-inv F
  0.750000  0.375000  0.375000    0.00195312  20 t-inv F
  0.000000  0.500000  0.500000    0.00195312  21 t-inv F
  0.500000  0.000000  0.500000    0.00195312  21 t-inv F
 -0.375000 -0.250000 -0.125000    0.00195312  22 t-inv F
  0.125000  0.375000  0.250000    0.00195312  22 t-inv F
 -0.125000 -0.375000 -0.250000    0.00195312  22 t-inv F
  0.250000  0.125000  0.375000    0.00195312  22 t-inv F
 -0.250000 -0.125000 -0.375000    0.00195312  22 t-inv F
  0.250000  0.125000 -0.125000    0.00195312  22 t-inv F
 -0.250000 -0.125000  0.125000    0.00195312  22 t-inv F
  0.375000  0.125000  0.250000    0.00195312  22 t-inv F
 -0.375000 -0.125000 -0.250000    0.00195312  22 t-inv F
  0.125000 -0.250000 -0.125000    0.00195312  22 t-inv F
 -0.125000  0.250000  0.125000    0.00195312  22 t-inv F
  0.125000  0.250000 -0.125000    0.00195312  22 t-inv F
 -0.125000 -0.250000  0.125000    0.00195312  22 t-inv F
  0.125000 -0.125000 -0.250000    0.00195312  22 t-inv F
 -0.125000  0.125000  0.250000    0.00195312  22 t-inv F
  0.250000  0.375000  0.125000    0.00195312  22 t-inv F
 -0.250000 -0.375000 -0.125000    0.00195312  22 t-inv F
 -0.125000  0.125000 -0.250000    0.00195312  22 t-inv F
  0.125000 -0.125000  0.250000    0.00195312  22 t-inv F
 -0.250000  0.125000 -0.125000    0.00195312  22 t-inv F
  0.250000 -0.125000  0.125000    0.00195312  22 t-inv F
  0.125000  0.250000  0.375000    0.00195312  22 t-inv F
 -0.125000 -0.250000 -0.375000    0.00195312  22 t-inv F
 -0.500000 -0.250000 -0.125000    0.00195312  23 t-inv F
  0.125000  0.500000  0.250000    0.00195312  23 t-inv F
 -0.125000 -0.500000 -0.250000    0.00195312  23 t-inv F
  0.250000  0.125000  0.500000    0.00195312  23 t-inv F
 -0.250000 -0.125000 -0.500000    0.00195312  23 t-inv F
  0.250000  0.125000 -0.250000    0.00195312  23 t-inv F
 -0.250000 -0.125000  0.250000    0.00195312  23 t-inv F
  0.500000  0.250000  0.375000    0.00195312  23 t-inv F
 -0.500000 -0.250000 -0.375000    0.00195312  23 t-inv F
  0.125000 -0.375000 -0.125000    0.00195312  23 t-inv F
 -0.125000  0.375000  0.125000    0.00195312  23 t-inv F
  0.125000  0.375000 -0.125000    0.00195312  23 t-inv F
 -0.125000 -0.375000  0.125000    0.00195312  23 t-inv F
  0.250000 -0.125000 -0.250000    0.00195312  23 t-inv F
 -0.250000  0.125000  0.250000    0.00195312  23 t-inv F
 -0.375000 -0.250000 -0.500000    0.00195312  23 t-inv F
  0.375000  0.250000  0.500000    0.00195312  23 t-inv F
  0.375000  0.500000  0.250000    0.00195312  23 t-inv F
 -0.375000 -0.500000 -0.250000    0.00195312  23 t-inv F
 -0.125000  0.125000 -0.375000    0.00195312  23 t-inv F
  0.125000 -0.125000  0.375000    0.00195312  23 t-inv F
 -0.250000  0.250000  0.125000    0.00195312  23 t-inv F
  0.250000 -0.250000 -0.125000    0.00195312  23 t-inv F
 -0.125000  0.125000  0.375000    0.00195312  23 t-inv F
  0.125000 -0.125000 -0.375000    0.00195312  23 t-inv F
 -0.250000  0.250000 -0.125000    0.00195312  23 t-inv F
  0.250000 -0.250000  0.125000    0.00195312  23 t-inv F
 -0.500000 -0.375000 -0.250000    0.00195312  23 t-inv F
  0.500000  0.375000  0.250000    0.00195312  23 t-inv F
  0.250000  0.375000  0.500000    0.00195312  23 t-inv F
 -0.250000 -0.375000 -0.500000    0.00195312  23 t-inv F
 -0.375000 -0.125000  0.125000    0.00195312  23 t-inv F
  0.375000  0.125000 -0.125000    0.00195312  23 t-inv F
  0.125000 -0.250000  0.250000    0.00195312  23 t-inv F
 -0.125000  0.250000 -0.250000    0.00195312  23 t-inv F
  0.375000 -0.125000  0.125000    0.00195312  23 t-inv F
 -0.375000  0.125000 -0.125000    0.00195312  23 t-inv F
 -0.125000 -0.250000  0.250000    0.00195312  23 t-inv F
  0.125000  0.250000 -0.250000    0.00195312  23 t-inv F
 -0.250000 -0.500000 -0.375000    0.00195312  23 t-inv F
  0.250000  0.500000  0.375000    0.00195312  23 t-inv F
 -0.500000 -0.125000 -0.250000    0.00195312  23 t-inv F
  0.500000  0.125000  0.250000    0.00195312  23 t-inv F
 -0.250000 -0.500000 -0.125000    0.00195312  23 t-inv F
  0.250000  0.500000  0.125000    0.00195312  23 t-inv F
 -0.125000 -0.250000 -0.500000    0.00195312  23 t-inv F
  0.125000  0.250000  0.500000    0.00195312  23 t-inv F
  0.375000 -0.250000 -0.125000    0.00195312  24 t-inv F
  0.125000 -0.375000  0.250000    0.00195312  24 t-inv F
 -0.125000  0.375000 -0.250000    0.00195312  24 t-inv F
  0.250000  0.125000 -0.375000    0.00195312  24 t-inv F
 -0.250000 -0.125000  0.375000    0.00195312  24 t-inv F
 -0.375000 -0.625000 -0.500000    0.00195312  24 t-inv F
  0.375000  0.625000  0.500000    0.00195312  24 t-inv F
  0.125000  0.500000 -0.125000    0.00195312  24 t-inv F
 -0.125000 -0.500000  0.125000    0.00195312  24 t-inv F
 -0.625000 -0.125000 -0.250000    0.00195312  24 t-inv F
  0.625000  0.125000  0.250000    0.00195312  24 t-inv F
  0.500000  0.625000  0.375000    0.00195312  24 t-inv F
 -0.500000 -0.625000 -0.375000    0.00195312  24 t-inv F
 -0.125000  0.125000  0.500000    0.00195312  24 t-inv F
  0.125000 -0.125000 -0.500000    0.00195312  24 t-inv F
 -0.250000 -0.625000 -0.125000    0.00195312  24 t-inv F
  0.250000  0.625000  0.125000    0.00195312  24 t-inv F
  0.375000  0.500000  0.625000    0.00195312  24 t-inv F
 -0.375000 -0.500000 -0.625000    0.00195312  24 t-inv F
  0.500000 -0.125000  0.125000    0.00195312  24 t-inv F
 -0.500000  0.125000 -0.125000    0.00195312  24 t-inv F
 -0.125000 -0.250000 -0.625000    0.00195312  24 t-inv F
  0.125000  0.250000  0.625000    0.00195312  24 t-inv F
 -0.500000 -0.375000 -0.125000    0.00195312  25 t-inv F
  0.125000  0.500000  0.375000    0.00195312  25 t-inv F
 -0.125000 -0.500000 -0.375000    0.00195312  25 t-inv F
  0.375000  0.125000  0.500000    0.00195312  25 t-inv F
 -0.375000 -0.125000 -0.500000    0.00195312  25 t-inv F
  0.375000  0.250000 -0.125000    0.00195312  25 t-inv F
 -0.375000 -0.250000  0.125000    0.00195312  25 t-inv F
  0.500000  0.125000  0.375000    0.00195312  25 t-inv F
 -0.500000 -0.125000 -0.375000    0.00195312  25 t-inv F
  0.125000 -0.375000 -0.250000    0.00195312  25 t-inv F
 -0.125000  0.375000  0.250000    0.00195312  25 t-inv F
  0.250000  0.375000 -0.125000    0.00195312  25 t-inv F
 -0.250000 -0.375000  0.125000    0.00195312  25 t-inv F
  0.125000 -0.250000 -0.375000    0.00195312  25 t-inv F
 -0.125000  0.250000  0.375000    0.00195312  25 t-inv F
  0.375000  0.500000  0.125000    0.00195312  25 t-inv F
 -0.375000 -0.500000 -0.125000    0.00195312  25 t-inv F
 -0.250000  0.125000 -0.375000    0.00195312  25 t-inv F
  0.250000 -0.125000  0.375000    0.00195312  25 t-inv F
 -0.375000  0.125000 -0.250000    0.00195312  25 t-inv F
  0.375000 -0.125000  0.250000    0.00195312  25 t-inv F
  0.125000  0.375000  0.500000    0.00195312  25 t-inv F
 -0.125000 -0.375000 -0.500000    0.00195312  25 t-inv F
  0.375000 -0.375000 -0.125000    0.00195312  26 t-inv F
  0.125000 -0.375000  0.375000    0.00195312  26 t-inv F
 -0.125000  0.375000 -0.375000    0.00195312  26 t-inv F
  0.375000  0.125000 -0.375000    0.00195312  26 t-inv F
 -0.375000 -0.125000  0.375000    0.00195312  26 t-inv F
  0.375000  0.250000  0.750000    0.00195312  26 t-inv F
 -0.375000 -0.250000 -0.750000    0.00195312  26 t-inv F
 -0.375000 -0.750000 -0.500000    0.00195312  26 t-inv F
  0.375000  0.750000  0.500000    0.00195312  26 t-inv F
  0.125000  0.500000 -0.250000    0.00195312  26 t-inv F
 -0.125000 -0.500000  0.250000    0.00195312  26 t-inv F
  0.250000 -0.500000 -0.125000    0.00195312  26 t-inv F
 -0.250000  0.500000  0.125000    0.00195312  26 t-inv F
 -0.750000 -0.250000 -0.375000    0.00195312  26 t-inv F
  0.750000  0.250000  0.375000    0.00195312  26 t-inv F
  0.500000  0.750000  0.375000    0.00195312  26 t-inv F
 -0.500000 -0.750000 -0.375000    0.00195312  26 t-inv F
 -0.500000 -0.375000 -0.750000    0.00195312  26 t-inv F
  0.500000  0.375000  0.750000    0.00195312  26 t-inv F
 -0.250000  0.125000  0.500000    0.00195312  26 t-inv F
  0.250000 -0.125000 -0.500000    0.00195312  26 t-inv F
  0.750000  0.375000  0.250000    0.00195312  26 t-inv F
 -0.750000 -0.375000 -0.250000    0.00195312  26 t-inv F
 -0.125000  0.250000 -0.500000    0.00195312  26 t-inv F
  0.125000 -0.250000  0.500000    0.00195312  26 t-inv F
 -0.375000 -0.750000 -0.250000    0.00195312  26 t-inv F
  0.375000  0.750000  0.250000    0.00195312  26 t-inv F
  0.375000  0.500000  0.750000    0.00195312  26 t-inv F
 -0.375000 -0.500000 -0.750000    0.00195312  26 t-inv F
 -0.750000 -0.500000 -0.375000    0.00195312  26 t-inv F
  0.750000  0.500000  0.375000    0.00195312  26 t-inv F
  0.500000 -0.250000  0.125000    0.00195312  26 t-inv F
 -0.500000  0.250000 -0.125000    0.00195312  26 t-inv F
  0.250000  0.750000  0.375000    0.00195312  26 t-inv F
 -0.250000 -0.750000 -0.375000    0.00195312  26 t-inv F
 -0.500000 -0.125000  0.250000    0.00195312  26 t-inv F
  0.500000  0.125000 -0.250000    0.00195312  26 t-inv F
 -0.250000 -0.375000 -0.750000    0.00195312  26 t-inv F
  0.250000  0.375000  0.750000    0.00195312  26 t-inv F
  0.750000  0.375000  0.500000    0.00195312  26 t-inv F
 -0.750000 -0.375000 -0.500000    0.00195312  26 t-inv F
  0.375000 -0.125000 -0.375000    0.00195312  26 t-inv F
 -0.375000  0.125000  0.375000    0.00195312  26 t-inv F
 -0.375000  0.375000 -0.125000    0.00195312  26 t-inv F
  0.375000 -0.375000  0.125000    0.00195312  26 t-inv F
 -0.125000 -0.375000  0.375000    0.00195312  26 t-inv F
  0.125000  0.375000 -0.375000    0.00195312  26 t-inv F
  0.250000 -0.375000 -0.125000    0.00195312  27 t-inv F
  0.125000 -0.250000  0.375000    0.00195312  27 t-inv F
 -0.125000  0.250000 -0.375000    0.00195312  27 t-inv F
  0.375000  0.125000 -0.250000    0.00195312  27 t-inv F
 -0.375000 -0.125000  0.250000    0.00195312  27 t-inv F
  0.375000  0.250000  0.625000    0.00195312  27 t-inv F
 -0.375000 -0.250000 -0.625000    0.00195312  27 t-inv F
 -0.250000 -0.625000 -0.375000    0.00195312  27 t-inv F
  0.250000  0.625000  0.375000    0.00195312  27 t-inv F
  0.125000  0.375000 -0.250000    0.00195312  27 t-inv F
 -0.125000 -0.375000  0.250000    0.00195312  27 t-inv F
 -0.625000 -0.250000 -0.375000    0.00195312  27 t-inv F
  0.625000  0.250000  0.375000    0.00195312  27 t-inv F
  0.375000  0.625000  0.250000    0.00195312  27 t-inv F
 -0.375000 -0.625000 -0.250000    0.00195312  27 t-inv F
 -0.250000  0.125000  0.375000    0.00195312  27 t-inv F
  0.250000 -0.125000 -0.375000    0.00195312  27 t-inv F
  0.625000  0.375000  0.250000    0.00195312  27 t-inv F
 -0.625000 -0.375000 -0.250000    0.00195312  27 t-inv F
  0.250000  0.375000  0.625000    0.00195312  27 t-inv F
 -0.250000 -0.375000 -0.625000    0.00195312  27 t-inv F
  0.375000 -0.250000  0.125000    0.00195312  27 t-inv F
 -0.375000  0.250000 -0.125000    0.00195312  27 t-inv F
  0.375000 -0.500000 -0.125000    0.00195312  28 t-inv F
  0.125000 -0.375000  0.500000    0.00195312  28 t-inv F
 -0.125000  0.375000 -0.500000    0.00195312  28 t-inv F
  0.500000  0.125000 -0.375000    0.00195312  28 t-inv F
 -0.500000 -0.125000  0.375000    0.00195312  28 t-inv F
  0.500000  0.375000  0.875000    0.00195312  28 t-inv F
 -0.500000 -0.375000 -0.875000    0.00195312  28 t-inv F
 -0.375000 -0.875000 -0.500000    0.00195312  28 t-inv F
  0.375000  0.875000  0.500000    0.00195312  28 t-inv F
  0.125000  0.500000 -0.375000    0.00195312  28 t-inv F
 -0.125000 -0.500000  0.375000    0.00195312  28 t-inv F
  0.250000 -0.500000 -0.250000    0.00195312  29 t-inv F
  0.250000 -0.250000  0.500000    0.00195312  29 t-inv F
 -0.250000  0.250000 -0.500000    0.00195312  29 t-inv F
  0.500000  0.250000 -0.250000    0.00195312  29 t-inv F
 -0.500000 -0.250000  0.250000    0.00195312  29 t-inv F

 ----------------------------------------------------------------------------- 
|                                                                             |
|           W    W    AA    RRRRR   N    N  II  N    N   GGGG   !!!           |
|           W    W   A  A   R    R  NN   N  II  NN   N  G    G  !!!           |
|           W    W  A    A  R    R  N N  N  II  N N  N  G       !!!           |
|           W WW W  AAAAAA  RRRRR   N  N N  II  N  N N  G  GGG   !            |
|           WW  WW  A    A  R   R   N   NN  II  N   NN  G    G                |
|           W    W  A    A  R    R  N    N  II  N    N   GGGG   !!!           |
|                                                                             |
|      The number of bands has been changed from the values supplied          |
|      in the INCAR file. This is a result of running the parallel version.   |
|      The orbitals not found in the WAVECAR file will be initialized with    |
|      random numbers, which is usually adequate. For correlated              |
|      calculations, however, you should redo the groundstate calculation.    |
|      I found NBANDS    =       60  now  NBANDS  =      64                   |
|                                                                             |
 ----------------------------------------------------------------------------- 



--------------------------------------------------------------------------------------------------------




 Dimension of arrays:
   k-points           NKPTS =    163   k-points in BZ     NKDIM =    646   number of bands    NBANDS=     64
   number of dos      NEDOS =    301   number of ions     NIONS =      2
   non local maximal  LDIM  =      8   non local SUM 2l+1 LMDIM =     32
   total plane-waves  NPLWV =  21952
   max r-space proj   IRMAX =      1   max aug-charges    IRDMAX= 301557
   dimension x,y,z NGX =    28 NGY =   28 NGZ =   28
   dimension x,y,z NGXF=    56 NGYF=   56 NGZF=   56
   support grid    NGXF=   112 NGYF=  112 NGZF=  112
   ions per type =               1   1
   NGX,Y,Z   is equivalent  to a cutoff of  12.72, 12.72, 12.72 a.u.
   NGXF,Y,Z  is equivalent  to a cutoff of  25.44, 25.44, 25.44 a.u.

 SYSTEM =  matgen-band                             
 POSCAR =  N1 Th1                                  

 Startparameter for this run:
   NWRITE =      2    write-flag & timer
   PREC   = accura    normal or accurate (medium, high low for compatibility)
   ISTART =      1    job   : 0-new  1-cont  2-samecut
   ICHARG =     11    charge: 1-file 2-atom 10-const
   ISPIN  =      1    spin polarized calculation?
   LNONCOLLINEAR =      F non collinear calculations
   LSORBIT =      F    spin-orbit coupling
   INIWAV =      1    electr: 0-lowe 1-rand  2-diag
   LASPH  =      F    aspherical Exc in radial PAW
   METAGGA=      F    non-selfconsistent MetaGGA calc.

 Electronic Relaxation 1
   ENCUT  =  520.0 eV  38.22 Ry    6.18 a.u.   6.80  6.80  6.80*2*pi/ulx,y,z
   ENINI  =  520.0     initial cutoff
   ENAUG  =  627.1 eV  augmentation charge cutoff
   NELM   =    140;   NELMIN=  6; NELMDL=  0     # of ELM steps 
   EDIFF  = 0.1E-03   stopping-criterion for ELM
   LREAL  =      F    real-space projection
   NLSPLINE    = F    spline interpolate recip. space projectors
   LCOMPAT=      F    compatible to vasp.4.4
   GGA_COMPAT  = T    GGA compatible to vasp.4.4-vasp.4.6
   LMAXPAW     = -100 max onsite density
   LMAXMIX     =    2 max onsite mixed and CHGCAR
   VOSKOWN=      0    Vosko Wilk Nusair interpolation
   ROPT   =    0.00000   0.00000
 Ionic relaxation
   EDIFFG = -.1E-01   stopping-criterion for IOM
   NSW    =      0    number of steps for IOM
   NBLOCK =      1;   KBLOCK =      1    inner block; outer block 
   IBRION =     -1    ionic relax: 0-MD 1-quasi-New 2-CG
   NFREE  =      0    steps in history (QN), initial steepest desc. (CG)
   ISIF   =      0    stress and relaxation
   IWAVPR =     10    prediction:  0-non 1-charg 2-wave 3-comb
   ISYM   =      3    0-nonsym 1-usesym 2-fastsym
   LCORR  =      T    Harris-Foulkes like correction to forces

   POTIM  = 0.0500    time-step for ionic-motion
   TEIN   =    0.0    initial temperature
   TEBEG  =    0.0;   TEEND  =   0.0 temperature during run
   SMASS  =  -3.00    Nose mass-parameter (am)
   estimated Nose-frequenzy (Omega)   =  0.10E-29 period in steps =****** mass=  -0.306E-27a.u.
   SCALEE = 1.0000    scale energy and forces
   NPACO  =    256;   APACO  = 16.0  distance and # of slots for P.C.
   PSTRESS=    0.0 pullay stress

  Mass of Ions in am
   POMASS =  14.00232.04
  Ionic Valenz
   ZVAL   =   5.00 12.00
  Atomic Wigner-Seitz radii
   RWIGS  =  -1.00 -1.00
  virtual crystal weights 
   VCA    =   1.00  1.00
   NELECT =      17.0000    total number of electrons
   NUPDOWN=      -1.0000    fix difference up-down

 DOS related values:
   EMIN   =  10.00;   EMAX   =-10.00  energy-range for DOS
   EFERMI =   0.00
   ISMEAR =     0;   SIGMA  =   0.05  broadening in eV -4-tet -1-fermi 0-gaus

 Electronic relaxation 2 (details)
   IALGO  =     53    algorithm
   LDIAG  =      T    sub-space diagonalisation (order eigenvalues)
   LSUBROT=      F    optimize rotation matrix (better conditioning)
   TURBO    =      0    0=normal 1=particle mesh
   IRESTART =      0    0=no restart 2=restart with 2 vectors
   NREBOOT  =      0    no. of reboots
   NMIN     =      0    reboot dimension
   EREF     =   0.00    reference energy to select bands
   IMIX   =      4    mixing-type and parameters
     AMIX     =   0.10;   BMIX     =  1.20
     AMIX_MAG =   0.40;   BMIX_MAG =  1.20
     AMIN     =   0.10
     WC   =   100.;   INIMIX=   1;  MIXPRE=   1;  MAXMIX= -45

 Intra band minimization:
   WEIMIN = 0.0000     energy-eigenvalue tresh-hold
   EBREAK =  0.39E-06  absolut break condition
   DEPER  =   0.30     relativ break condition  

   TIME   =   0.40     timestep for ELM

  volume/ion in A,a.u.               =      17.32       116.90
  Fermi-wavevector in a.u.,A,eV,Ry     =   1.291258  2.440124 22.685649  1.667348
  Thomas-Fermi vector in A             =   2.423039
 
 Write flags
   LWAVE        =      F    write WAVECAR
   LDOWNSAMPLE  =      F    k-point downsampling of WAVECAR
   LCHARG       =      T    write CHGCAR
   LVTOT        =      F    write LOCPOT, total local potential
   LVHAR        =      F    write LOCPOT, Hartree potential only
   LELF         =      F    write electronic localiz. function (ELF)
   LORBIT       =     11    0 simple, 1 ext, 2 COOP (PROOUT), +10 PAW based schemes


 Dipole corrections
   LMONO  =      F    monopole corrections only (constant potential shift)
   LDIPOL =      F    correct potential (dipole corrections)
   IDIPOL =      0    1-x, 2-y, 3-z, 4-all directions 
   EPSILON=  1.0000000 bulk dielectric constant

 Exchange correlation treatment:
   GGA     =    --    GGA type
   LEXCH   =     8    internal setting for exchange type
   VOSKOWN=      0    Vosko Wilk Nusair interpolation
   EXXOEP  =     0    0=HF, 1=EXX-LHF (local Hartree Fock) 2=EXX OEP
   LHFCALC =     T    Hartree Fock is set to
   LSYMGRAD=     F    symmetrize gradient (conserves proper symmetry)
   PRECFOCK=normal    Normal, Fast or Accurate (Low or Medium for compatibility)
   LRHFCALC=     F    long range Hartree Fock
   LRSCOR  =     F    long range correlation only (use DFT for short range part)
   LTHOMAS =     F    Thomas Fermi screening in HF
   LMODELHF=     F    short range full HF, long range fraction AEXX
   ENCUT4O =  -1.0   cutoff for four orbital integrals eV
   LMAXFOCK=     4    L truncation for augmentation on plane wave grid
   LMAXFOCKAE=  -1    L truncation for all-electron charge restoration on plane wave grid
   NMAXFOCKAE=   1    number of basis functions for all-electron charge restoration
   LFOCKAEDFT=     F  apply the AE augmentation even for DFT
   NKREDX  =     1    reduce k-point grid by
   NKREDY  =     1    reduce k-point grid by
   NKREDZ  =     1    reduce k-point grid by
   SHIFTRED=     F    shift reduced grid of Gamma
   HFKIDENT=     F    idential grid for each k-point
   ODDONLY =     F    use only odd q-grid points
   EVENONLY=     F    use only even q-grid points
   HFALPHA =   -1.0000 decay constant for conv. correction
   MCALPHA =    0.0000 extent of test-charge in conv. correction in multipole expansion
   AEXX    =    0.2500 exact exchange contribution
   HFSCREEN=    0.2000 screening length (either q_TF or 0.3 A-1)
   HFSCREENC=   0.2000 screening length for correlation (either q_TF or 0.3 A-1)
   HFRCUT  =    0.0000 spherical cutoff for potential kernel
   ALDAX   =    0.7500 LDA exchange part
   AGGAX   =    0.7500 GGA exchange part
   ALDAC   =    1.0000 LDA correlation
   AGGAC   =    1.0000 GGA correlation
   ENCUTFOCK=  -1.0 apply spherical cutoff to Coloumb kernel
   NBANDSGWLOW=     1    first orbital included in HF term
   NBLOCK_FOCK=    64    blocking factor in FOCK_ACC
 Linear response parameters
   LEPSILON=     F    determine dielectric tensor
   LRPA    =     F    only Hartree local field effects (RPA)
   LNABLA  =     F    use nabla operator in PAW spheres
   LVEL    =     F    velocity operator in full k-point grid
   LINTERFAST=   F  fast interpolation
   KINTER  =     0    interpolate to denser k-point grid
   CSHIFT  =0.1000    complex shift for real part using Kramers Kronig
   OMEGAMAX=  -1.0    maximum frequency
   DEG_THRESHOLD= 0.2000000E-02 threshold for treating states as degnerate
   RTIME   =   -0.100 relaxation time in fs
  (WPLASMAI=    0.000 imaginary part of plasma frequency in eV, 0.658/RTIME)
   DFIELD  = 0.0000000 0.0000000 0.0000000 field for delta impulse in time
 
 Orbital magnetization related:
   ORBITALMAG=     F  switch on orbital magnetization
   LCHIMAG   =     F  perturbation theory with respect to B field
   DQ        =  0.001000  dq finite difference perturbation B field
   LLRAUG    =     F  two centre corrections for induced B field



--------------------------------------------------------------------------------------------------------


 Static calculation
 charge density and potential remain constant during run
 non-spin polarized calculation
 Conjugate gradient for all bands (Freysoldt, et al. PRB 79, 241103 (2009))
 perform sub-space diagonalisation
    before iterative eigenvector-optimisation
 no mixing
 using additional bands           55
 reciprocal scheme for non local part
 use partial core corrections
 calculate Harris-corrections to forces 
   (improved forces if not selfconsistent)
 use gradient corrections 
 WARNING: stress and forces are not correct
  (second derivative of E(xc) not defined)
 use of overlap-Matrix (Vanderbilt PP)
 Gauss-broadening in eV      SIGMA  =   0.05


--------------------------------------------------------------------------------------------------------


  energy-cutoff  :      520.00
  volume of cell :       34.64
      direct lattice vectors                 reciprocal lattice vectors
     0.000000000  2.587426345  2.587426345    -0.193242216  0.193242216  0.193242216
     2.587426345  0.000000000  2.587426345     0.193242216 -0.193242216  0.193242216
     2.587426345  2.587426345  0.000000000     0.193242216  0.193242216 -0.193242216

  length of vectors
     3.659173429  3.659173429  3.659173429     0.334705336  0.334705336  0.334705336


 
 old parameters found on file WAVECAR:
  energy-cutoff  :      520.00
  volume of cell :       34.64
      direct lattice vectors                 reciprocal lattice vectors
     0.000000000  2.587426345  2.587426345    -0.193242216  0.193242216  0.193242216
     2.587426345  0.000000000  2.587426345     0.193242216 -0.193242216  0.193242216
     2.587426345  2.587426345  0.000000000     0.193242216  0.193242216 -0.193242216

  length of vectors

 
 k-points in units of 2pi/SCALE and weight: 0.040   8   8   8   29  0.040  134    6 
   0.00000000  0.00000000  0.00000000       0.002
  -0.02415528  0.02415528  0.02415528       0.016
  -0.04831055  0.04831055  0.04831055       0.016
  -0.07246583  0.07246583  0.07246583       0.016
  -0.09662111  0.09662111  0.09662111       0.008
   0.00000000  0.00000000  0.04831055       0.012
  -0.02415528  0.02415528  0.07246583       0.047
  -0.04831055  0.04831055  0.09662111       0.047
  -0.07246583  0.07246583  0.12077638       0.047
   0.09662111 -0.09662111 -0.04831055       0.047
   0.07246583 -0.07246583 -0.02415528       0.047
   0.04831055 -0.04831055  0.00000000       0.023
   0.00000000  0.00000000  0.09662111       0.012
  -0.02415528  0.02415528  0.12077638       0.047
  -0.04831055  0.04831055  0.14493166       0.047
   0.12077638 -0.12077638 -0.02415528       0.047
   0.09662111 -0.09662111  0.00000000       0.023
   0.00000000  0.00000000  0.14493166       0.012
  -0.02415528  0.02415528  0.16908694       0.047
   0.14493166 -0.14493166  0.00000000       0.023
   0.00000000  0.00000000  0.19324222       0.006
   0.00000000  0.04831055  0.09662111       0.047
  -0.02415528  0.07246583  0.12077638       0.094
   0.14493166 -0.09662111 -0.04831055       0.047
  -0.00000000  0.04831055  0.14493166       0.047
   0.16908694 -0.12077638 -0.02415528       0.094
   0.14493166 -0.09662111 -0.00000000       0.047
   0.19324222 -0.14493166  0.00000000       0.023
   0.19324222 -0.09662111  0.00000000       0.012
   0.00000000  0.00000000  0.00000000       0.000
   0.00000000  0.00666352  0.00000000       0.000
   0.00000000  0.01332705  0.00000000       0.000
   0.00000000  0.01999057  0.00000000       0.000
   0.00000000  0.02665410  0.00000000       0.000
   0.00000000  0.03331762  0.00000000       0.000
   0.00000000  0.03998115  0.00000000       0.000
   0.00000000  0.04664467  0.00000000       0.000
   0.00000000  0.05330820  0.00000000       0.000
   0.00000000  0.05997172  0.00000000       0.000
   0.00000000  0.06663525  0.00000000       0.000
   0.00000000  0.07329877  0.00000000       0.000
   0.00000000  0.07996230  0.00000000       0.000
   0.00000000  0.08662582  0.00000000       0.000
   0.00000000  0.09328935  0.00000000       0.000
   0.00000000  0.09995287  0.00000000       0.000
   0.00000000  0.10661639  0.00000000       0.000
   0.00000000  0.11327992  0.00000000       0.000
   0.00000000  0.11994344  0.00000000       0.000
   0.00000000  0.12660697  0.00000000       0.000
   0.00000000  0.13327049  0.00000000       0.000
   0.00000000  0.13993402  0.00000000       0.000
   0.00000000  0.14659754  0.00000000       0.000
   0.00000000  0.15326107  0.00000000       0.000
   0.00000000  0.15992459  0.00000000       0.000
   0.00000000  0.16658812  0.00000000       0.000
   0.00000000  0.17325164  0.00000000       0.000
   0.00000000  0.17991517  0.00000000       0.000
   0.00000000  0.18657869  0.00000000       0.000
   0.00000000  0.19324222  0.00000000       0.000
   0.00000000  0.19324222  0.00000000       0.000
   0.00536784  0.19324222  0.00536784       0.000
   0.01073568  0.19324222  0.01073568       0.000
   0.01610352  0.19324222  0.01610352       0.000
   0.02147136  0.19324222  0.02147136       0.000
   0.02683920  0.19324222  0.02683920       0.000
   0.03220704  0.19324222  0.03220704       0.000
   0.03757488  0.19324222  0.03757488       0.000
   0.04294271  0.19324222  0.04294271       0.000
   0.04831055  0.19324222  0.04831055       0.000
   0.14493166  0.14493166  0.00000000       0.000
   0.14025645  0.14025645  0.00000000       0.000
   0.13558123  0.13558123 -0.00000000       0.000
   0.13090602  0.13090602 -0.00000000       0.000
   0.12623080  0.12623080  0.00000000       0.000
   0.12155559  0.12155559  0.00000000       0.000
   0.11688037  0.11688037  0.00000000       0.000
   0.11220516  0.11220516  0.00000000       0.000
   0.10752994  0.10752994 -0.00000000       0.000
   0.10285473  0.10285473 -0.00000000       0.000
   0.09817951  0.09817951  0.00000000       0.000
   0.09350430  0.09350430  0.00000000       0.000
   0.08882908  0.08882908  0.00000000       0.000
   0.08415387  0.08415387  0.00000000       0.000
   0.07947865  0.07947865 -0.00000000       0.000
   0.07480344  0.07480344 -0.00000000       0.000
   0.07012822  0.07012822  0.00000000       0.000
   0.06545301  0.06545301  0.00000000       0.000
   0.06077779  0.06077779  0.00000000       0.000
   0.05610258  0.05610258  0.00000000       0.000
   0.05142736  0.05142736  0.00000000       0.000
   0.04675215  0.04675215 -0.00000000       0.000
   0.04207693  0.04207693  0.00000000       0.000
   0.03740172  0.03740172  0.00000000       0.000
   0.03272650  0.03272650  0.00000000       0.000
   0.02805129  0.02805129  0.00000000       0.000
   0.02337607  0.02337607  0.00000000       0.000
   0.01870086  0.01870086 -0.00000000       0.000
   0.01402564  0.01402564  0.00000000       0.000
   0.00935043  0.00935043  0.00000000       0.000
   0.00467521  0.00467521  0.00000000       0.000
   0.00000000  0.00000000  0.00000000       0.000
   0.00000000  0.00000000  0.00000000       0.000
   0.00386484  0.00386484  0.00386484       0.000
   0.00772969  0.00772969  0.00772969       0.000
   0.01159453  0.01159453  0.01159453       0.000
   0.01545938  0.01545938  0.01545938       0.000
   0.01932422  0.01932422  0.01932422       0.000
   0.02318907  0.02318907  0.02318907       0.000
   0.02705391  0.02705391  0.02705391       0.000
   0.03091875  0.03091875  0.03091875       0.000
   0.03478360  0.03478360  0.03478360       0.000
   0.03864844  0.03864844  0.03864844       0.000
   0.04251329  0.04251329  0.04251329       0.000
   0.04637813  0.04637813  0.04637813       0.000
   0.05024298  0.05024298  0.05024298       0.000
   0.05410782  0.05410782  0.05410782       0.000
   0.05797266  0.05797266  0.05797266       0.000
   0.06183751  0.06183751  0.06183751       0.000
   0.06570235  0.06570235  0.06570235       0.000
   0.06956720  0.06956720  0.06956720       0.000
   0.07343204  0.07343204  0.07343204       0.000
   0.07729689  0.07729689  0.07729689       0.000
   0.08116173  0.08116173  0.08116173       0.000
   0.08502657  0.08502657  0.08502657       0.000
   0.08889142  0.08889142  0.08889142       0.000
   0.09275626  0.09275626  0.09275626       0.000
   0.09662111  0.09662111  0.09662111       0.000
   0.09662111  0.09662111  0.09662111       0.000
   0.09662111  0.10145216  0.09179005       0.000
   0.09662111  0.10628322  0.08695900       0.000
   0.09662111  0.11111427  0.08212794       0.000
   0.09662111  0.11594533  0.07729689       0.000
   0.09662111  0.12077638  0.07246583       0.000
   0.09662111  0.12560744  0.06763478       0.000
   0.09662111  0.13043850  0.06280372       0.000
   0.09662111  0.13526955  0.05797266       0.000
   0.09662111  0.14010061  0.05314161       0.000
   0.09662111  0.14493166  0.04831055       0.000
   0.09662111  0.14976272  0.04347950       0.000
   0.09662111  0.15459377  0.03864844       0.000
   0.09662111  0.15942483  0.03381739       0.000
   0.09662111  0.16425588  0.02898633       0.000
   0.09662111  0.16908694  0.02415528       0.000
   0.09662111  0.17391799  0.01932422       0.000
   0.09662111  0.17874905  0.01449317       0.000
   0.09662111  0.18358010  0.00966211       0.000
   0.09662111  0.18841116  0.00483106       0.000
   0.09662111  0.19324222  0.00000000       0.000
   0.09662111  0.19324222  0.00000000       0.000
   0.08971960  0.19324222  0.00000000       0.000
   0.08281809  0.19324222  0.00000000       0.000
   0.07591658  0.19324222  0.00000000       0.000
   0.06901508  0.19324222  0.00000000       0.000
   0.06211357  0.19324222  0.00000000       0.000
   0.05521206  0.19324222  0.00000000       0.000
   0.04831055  0.19324222  0.00000000       0.000
   0.04140905  0.19324222  0.00000000       0.000
   0.03450754  0.19324222  0.00000000       0.000
   0.02760603  0.19324222  0.00000000       0.000
   0.02070452  0.19324222 -0.00000000       0.000
   0.01380302  0.19324222  0.00000000       0.000
   0.00690151  0.19324222 -0.00000000       0.000
   0.00000000  0.19324222  0.00000000       0.000
 
 k-points in reciprocal lattice and weights: 0.040   8   8   8   29  0.040  134    6 
   0.00000000  0.00000000  0.00000000       0.002
   0.12500000  0.00000000  0.00000000       0.016
   0.25000000  0.00000000  0.00000000       0.016
   0.37500000  0.00000000  0.00000000       0.016
   0.50000000  0.00000000  0.00000000       0.008
   0.12500000  0.12500000  0.00000000       0.012
   0.25000000  0.12500000  0.00000000       0.047
   0.37500000  0.12500000  0.00000000       0.047
   0.50000000  0.12500000  0.00000000       0.047
  -0.37500000  0.12500000  0.00000000       0.047
  -0.25000000  0.12500000  0.00000000       0.047
  -0.12500000  0.12500000  0.00000000       0.023
   0.25000000  0.25000000  0.00000000       0.012
   0.37500000  0.25000000  0.00000000       0.047
   0.50000000  0.25000000  0.00000000       0.047
  -0.37500000  0.25000000  0.00000000       0.047
  -0.25000000  0.25000000  0.00000000       0.023
   0.37500000  0.37500000  0.00000000       0.012
   0.50000000  0.37500000  0.00000000       0.047
  -0.37500000  0.37500000  0.00000000       0.023
   0.50000000  0.50000000  0.00000000       0.006
   0.37500000  0.25000000  0.12500000       0.047
   0.50000000  0.25000000  0.12500000       0.094
  -0.37500000  0.25000000  0.12500000       0.047
   0.50000000  0.37500000  0.12500000       0.047
  -0.37500000  0.37500000  0.12500000       0.094
  -0.25000000  0.37500000  0.12500000       0.047
  -0.37500000  0.50000000  0.12500000       0.023
  -0.25000000  0.50000000  0.25000000       0.012
   0.00000000  0.00000000  0.00000000       0.000
   0.01724138  0.00000000  0.01724138       0.000
   0.03448276  0.00000000  0.03448276       0.000
   0.05172414  0.00000000  0.05172414       0.000
   0.06896552  0.00000000  0.06896552       0.000
   0.08620690  0.00000000  0.08620690       0.000
   0.10344828  0.00000000  0.10344828       0.000
   0.12068966  0.00000000  0.12068966       0.000
   0.13793103  0.00000000  0.13793103       0.000
   0.15517241  0.00000000  0.15517241       0.000
   0.17241379  0.00000000  0.17241379       0.000
   0.18965517  0.00000000  0.18965517       0.000
   0.20689655  0.00000000  0.20689655       0.000
   0.22413793  0.00000000  0.22413793       0.000
   0.24137931  0.00000000  0.24137931       0.000
   0.25862069  0.00000000  0.25862069       0.000
   0.27586207  0.00000000  0.27586207       0.000
   0.29310345  0.00000000  0.29310345       0.000
   0.31034483  0.00000000  0.31034483       0.000
   0.32758621  0.00000000  0.32758621       0.000
   0.34482759  0.00000000  0.34482759       0.000
   0.36206897  0.00000000  0.36206897       0.000
   0.37931034  0.00000000  0.37931034       0.000
   0.39655172  0.00000000  0.39655172       0.000
   0.41379310  0.00000000  0.41379310       0.000
   0.43103448  0.00000000  0.43103448       0.000
   0.44827586  0.00000000  0.44827586       0.000
   0.46551724  0.00000000  0.46551724       0.000
   0.48275862  0.00000000  0.48275862       0.000
   0.50000000  0.00000000  0.50000000       0.000
   0.50000000  0.00000000  0.50000000       0.000
   0.51388889  0.02777778  0.51388889       0.000
   0.52777778  0.05555556  0.52777778       0.000
   0.54166667  0.08333333  0.54166667       0.000
   0.55555556  0.11111111  0.55555556       0.000
   0.56944444  0.13888889  0.56944444       0.000
   0.58333333  0.16666667  0.58333333       0.000
   0.59722222  0.19444444  0.59722222       0.000
   0.61111111  0.22222222  0.61111111       0.000
   0.62500000  0.25000000  0.62500000       0.000
   0.37500000  0.37500000  0.75000000       0.000
   0.36290323  0.36290323  0.72580645       0.000
   0.35080645  0.35080645  0.70161290       0.000
   0.33870968  0.33870968  0.67741935       0.000
   0.32661290  0.32661290  0.65322581       0.000
   0.31451613  0.31451613  0.62903226       0.000
   0.30241935  0.30241935  0.60483871       0.000
   0.29032258  0.29032258  0.58064516       0.000
   0.27822581  0.27822581  0.55645161       0.000
   0.26612903  0.26612903  0.53225806       0.000
   0.25403226  0.25403226  0.50806452       0.000
[...]
     62      74.4143      0.00000
     63      75.8650      0.00000
     64      78.6718      0.00000

 k-point   158 :       0.5000    0.0893    0.5893
  band No.  band energies     occupation 
      1     -32.7694      2.00000
      2     -11.2704      2.00000
      3     -10.3023      2.00000
      4     -10.1031      2.00000
      5      -7.3317      2.00000
      6       5.1235      2.00000
      7       5.6036      2.00000
      8       6.4789      2.00000
      9       6.8202      2.00000
     10      12.3241      0.00000
     11      12.8169      0.00000
     12      13.3491      0.00000
     13      13.3894      0.00000
     14      13.9045      0.00000
     15      14.5491      0.00000
     16      14.9722      0.00000
     17      15.0882      0.00000
     18      16.5382      0.00000
     19      16.8560      0.00000
     20      17.4730      0.00000
     21      19.9989      0.00000
     22      20.8414      0.00000
     23      25.6918      0.00000
     24      26.2097      0.00000
     25      28.0929      0.00000
     26      28.3316      0.00000
     27      30.1990      0.00000
     28      31.5422      0.00000
     29      35.4869      0.00000
     30      36.0610      0.00000
     31      38.2525      0.00000
     32      38.7658      0.00000
     33      39.6371      0.00000
     34      40.4472      0.00000
     35      42.1479      0.00000
     36      43.9831      0.00000
     37      44.6991      0.00000
     38      44.7626      0.00000
     39      45.2792      0.00000
     40      45.5395      0.00000
     41      48.4338      0.00000
     42      48.9892      0.00000
     43      51.4647      0.00000
     44      52.0507      0.00000
     45      52.5830      0.00000
     46      56.2896      0.00000
     47      56.5255      0.00000
     48      59.0895      0.00000
     49      60.5966      0.00000
     50      62.5640      0.00000
     51      63.1420      0.00000
     52      63.4978      0.00000
     53      63.8736      0.00000
     54      64.5541      0.00000
     55      67.1882      0.00000
     56      67.1926      0.00000
     57      68.7547      0.00000
     58      69.0602      0.00000
     59      69.8271      0.00000
     60      71.2729      0.00000
     61      72.2130      0.00000
     62      73.4126      0.00000
     63      74.9480      0.00000
     64      77.3159      0.00000

 k-point   159 :       0.5000    0.0714    0.5714
  band No.  band energies     occupation 
      1     -32.7695      2.00000
      2     -11.3030      2.00000
      3     -10.2067      2.00000
      4     -10.0595      2.00000
      5      -7.4992      2.00000
      6       5.3569      2.00000
      7       5.6313      2.00000
      8       6.5213      2.00000
      9       6.6040      2.00000
     10      12.4830      0.00000
     11      12.8023      0.00000
     12      13.3740      0.00000
     13      13.3763      0.00000
     14      13.9063      0.00000
     15      14.6708      0.00000
     16      14.8461      0.00000
     17      15.0829      0.00000
     18      16.5593      0.00000
     19      16.7783      0.00000
     20      17.4677      0.00000
     21      20.0200      0.00000
     22      20.5073      0.00000
     23      25.8321      0.00000
     24      26.1785      0.00000
     25      28.1343      0.00000
     26      28.2822      0.00000
     27      30.0852      0.00000
     28      31.2346      0.00000
     29      35.3213      0.00000
     30      36.4666      0.00000
     31      38.4009      0.00000
     32      39.1854      0.00000
     33      39.9880      0.00000
     34      40.4673      0.00000
     35      42.3016      0.00000
     36      44.4319      0.00000
     37      44.4443      0.00000
     38      44.8880      0.00000
     39      44.9626      0.00000
     40      45.4507      0.00000
     41      48.3185      0.00000
     42      49.0511      0.00000
     43      51.3419      0.00000
     44      51.5384      0.00000
     45      52.0042      0.00000
     46      55.9756      0.00000
     47      56.6714      0.00000
     48      58.0615      0.00000
     49      61.3851      0.00000
     50      62.7111      0.00000
     51      63.3197      0.00000
     52      63.3296      0.00000
     53      63.8882      0.00000
     54      64.8064      0.00000
     55      67.5373      0.00000
     56      68.4957      0.00000
     57      69.6985      0.00000
     58      69.9032      0.00000
     59      70.1109      0.00000
     60      71.7556      0.00000
     61      72.0546      0.00000
     62      74.2564      0.00000
     63      75.2744      0.00000
     64      79.7375      0.00000

 k-point   160 :       0.5000    0.0536    0.5536
  band No.  band energies     occupation 
      1     -32.7697      2.00000
      2     -11.3286      2.00000
      3     -10.1182      2.00000
      4     -10.0247      2.00000
      5      -7.6461      2.00000
      6       5.5571      2.00000
      7       5.6747      2.00000
      8       6.4122      2.00000
      9       6.5554      2.00000
     10      12.6070      0.00000
     11      12.7890      0.00000
     12      13.3788      0.00000
     13      13.3847      0.00000
     14      13.9073      0.00000
     15      14.7214      0.00000
     16      14.8039      0.00000
     17      15.0790      0.00000
     18      16.2865      0.00000
     19      17.0194      0.00000
     20      17.4637      0.00000
     21      20.0429      0.00000
     22      20.1951      0.00000
     23      25.9492      0.00000
     24      26.1509      0.00000
     25      28.1690      0.00000
     26      28.2494      0.00000
     27      29.9813      0.00000
     28      30.9843      0.00000
     29      35.1882      0.00000
     30      36.8650      0.00000
     31      38.5183      0.00000
     32      39.5497      0.00000
     33      40.2719      0.00000
     34      40.4189      0.00000
     35      42.5783      0.00000
     36      44.1182      0.00000
     37      44.5442      0.00000
     38      44.8271      0.00000
     39      45.1704      0.00000
     40      45.3509      0.00000
     41      47.6356      0.00000
     42      49.7233      0.00000
     43      51.1426      0.00000
     44      51.2480      0.00000
     45      51.4406      0.00000
     46      55.7716      0.00000
     47      56.7611      0.00000
     48      57.1009      0.00000
     49      61.9755      0.00000
     50      63.0017      0.00000
     51      63.2756      0.00000
     52      63.5394      0.00000
     53      63.6422      0.00000
     54      64.8950      0.00000
     55      67.1600      0.00000
     56      67.7921      0.00000
     57      68.2710      0.00000
     58      70.3963      0.00000
     59      71.3306      0.00000
     60      71.5374      0.00000
     61      72.2494      0.00000
     62      72.5814      0.00000
     63      75.3251      0.00000
     64      78.7476      0.00000

 k-point   161 :       0.5000    0.0357    0.5357
  band No.  band energies     occupation 
      1     -32.7698      2.00000
      2     -11.3470      2.00000
      3     -10.0451      2.00000
      4      -9.9994      2.00000
      5      -7.7625      2.00000
      6       5.7113      2.00000
      7       5.7332      2.00000
      8       6.2466      2.00000
      9       6.5802      2.00000
     10      12.6913      0.00000
     11      12.7823      0.00000
     12      13.3866      0.00000
     13      13.3890      0.00000
     14      13.9091      0.00000
     15      14.6272      0.00000
     16      14.9257      0.00000
     17      15.0767      0.00000
     18      16.0534      0.00000
     19      17.2377      0.00000
     20      17.4601      0.00000
     21      19.9415      0.00000
     22      20.0507      0.00000
     23      26.0409      0.00000
     24      26.1262      0.00000
     25      28.1959      0.00000
     26      28.2298      0.00000
     27      29.8970      0.00000
     28      30.7992      0.00000
     29      35.0906      0.00000
     30      37.2140      0.00000
     31      38.6058      0.00000
     32      39.8555      0.00000
     33      40.3257      0.00000
     34      40.4351      0.00000
     35      42.9649      0.00000
     36      43.9028      0.00000
     37      44.2518      0.00000
     38      45.1743      0.00000
     39      45.1781      0.00000
     40      45.3377      0.00000
     41      47.1511      0.00000
     42      50.3642      0.00000
     43      50.8143      0.00000
     44      51.0567      0.00000
     45      51.1291      0.00000
     46      55.6118      0.00000
     47      56.2937      0.00000
     48      56.8285      0.00000
     49      62.8427      0.00000
     50      63.2753      0.00000
     51      63.4022      0.00000
     52      63.4626      0.00000
     53      63.9033      0.00000
     54      66.0364      0.00000
     55      66.7952      0.00000
     56      67.5471      0.00000
     57      68.1011      0.00000
     58      70.2604      0.00000
     59      71.3697      0.00000
     60      71.6296      0.00000
     61      72.2201      0.00000
     62      73.9659      0.00000
     63      75.2907      0.00000
     64      76.7334      0.00000

 k-point   162 :       0.5000    0.0179    0.5179
  band No.  band energies     occupation 
      1     -32.7698      2.00000
      2     -11.3582      2.00000
      3      -9.9960      2.00000
      4      -9.9839      2.00000
      5      -7.8381      2.00000
      6       5.8007      2.00000
      7       5.8089      2.00000
      8       6.1144      2.00000
      9       6.5953      2.00000
     10      12.7438      0.00000
     11      12.7759      0.00000
     12      13.3927      0.00000
     13      13.3929      0.00000
     14      13.9094      0.00000
     15      14.5631      0.00000
     16      15.0295      0.00000
     17      15.0750      0.00000
     18      15.8824      0.00000
     19      17.3979      0.00000
     20      17.4580      0.00000
     21      19.7539      0.00000
     22      20.0614      0.00000
     23      26.1005      0.00000
     24      26.1083      0.00000
     25      28.2143      0.00000
     26      28.2184      0.00000
     27      29.8433      0.00000
     28      30.6848      0.00000
     29      35.0311      0.00000
     30      37.4658      0.00000
     31      38.6583      0.00000
     32      40.0875      0.00000
     33      40.2290      0.00000
     34      40.4847      0.00000
     35      43.3174      0.00000
     36      43.8689      0.00000
     37      44.0943      0.00000
     38      44.8433      0.00000
     39      45.4217      0.00000
     40      45.4395      0.00000
     41      46.8220      0.00000
     42      50.6090      0.00000
     43      50.7852      0.00000
     44      50.8517      0.00000
     45      51.0787      0.00000
     46      55.5269      0.00000
     47      55.7018      0.00000
     48      56.8772      0.00000
     49      63.1827      0.00000
     50      63.2518      0.00000
     51      63.5217      0.00000
     52      63.5650      0.00000
     53      63.8796      0.00000
     54      64.9891      0.00000
     55      66.8170      0.00000
     56      67.8998      0.00000
     57      68.2639      0.00000
     58      70.9408      0.00000
     59      71.2043      0.00000
     60      72.4655      0.00000
     61      73.3462      0.00000
     62      74.3610      0.00000
     63      76.5831      0.00000
     64      78.1443      0.00000

 k-point   163 :       0.5000    0.0000    0.5000
  band No.  band energies     occupation 
      1     -32.7698      2.00000
      2     -11.3619      2.00000
      3      -9.9787      2.00000
      4      -9.9786      2.00000
      5      -7.8643      2.00000
      6       5.8420      2.00000
      7       5.8423      2.00000
      8       6.0515      2.00000
      9       6.6004      2.00000
     10      12.7553      0.00000
     11      12.7798      0.00000
     12      13.3942      0.00000
     13      13.3949      0.00000
     14      13.9097      0.00000
     15      14.5403      0.00000
     16      15.0746      0.00000
     17      15.0746      0.00000
     18      15.8148      0.00000
     19      17.4574      0.00000
     20      17.4578      0.00000
     21      19.6853      0.00000
     22      20.0661      0.00000
     23      26.1116      0.00000
     24      26.1119      0.00000
     25      28.2174      0.00000
     26      28.2179      0.00000
     27      29.8244      0.00000
     28      30.6463      0.00000
     29      35.0110      0.00000
     30      37.5584      0.00000
     31      38.6750      0.00000
     32      40.1836      0.00000
     33      40.1851      0.00000
     34      40.4809      0.00000
     35      43.4113      0.00000
     36      44.0394      0.00000
     37      44.0474      0.00000
     38      44.5612      0.00000
     39      45.5013      0.00000
     40      45.5020      0.00000
     41      46.7259      0.00000
     42      50.5265      0.00000
     43      50.6836      0.00000
     44      51.0470      0.00000
     45      51.0793      0.00000
     46      55.4707      0.00000
     47      55.4865      0.00000
     48      56.8895      0.00000
     49      63.3293      0.00000
     50      63.4276      0.00000
     51      63.5776      0.00000
     52      63.6879      0.00000
     53      64.1442      0.00000
     54      64.1753      0.00000
     55      66.7870      0.00000
     56      67.3510      0.00000
     57      69.1585      0.00000
     58      70.4133      0.00000
     59      71.6587      0.00000
     60      72.3298      0.00000
     61      73.7530      0.00000
     62      74.1613      0.00000
     63      77.0037      0.00000
     64      78.6899      0.00000


--------------------------------------------------------------------------------------------------------


 soft charge-density along one line, spin component           1
         0         1         2         3         4         5         6         7         8         9
 total charge-density along one line
 
 pseudopotential strength for first ion, spin component:           1
 11.611  13.902  -0.000  -0.000   0.000  -0.000  -0.000   0.000
 13.902  16.646  -0.000  -0.000   0.000  -0.000  -0.000   0.000
 -0.000  -0.000  -5.160   0.000   0.000  -6.679   0.000   0.000
 -0.000  -0.000   0.000  -5.160   0.000   0.000  -6.679   0.000
  0.000   0.000   0.000   0.000  -5.160   0.000   0.000  -6.679
 -0.000  -0.000  -6.679   0.000   0.000  -7.875   0.000   0.000
 -0.000  -0.000   0.000  -6.679   0.000   0.000  -7.875   0.000
  0.000   0.000   0.000   0.000  -6.679   0.000   0.000  -7.875
 total augmentation occupancy for first ion, spin component:           1
  2.000   0.000   0.000   0.000   0.000   0.000   0.000   0.000
  0.000   0.000   0.000   0.000   0.000   0.000   0.000   0.000
  0.000   0.000   1.000   0.000   0.000   0.000   0.000   0.000
  0.000   0.000   0.000   1.000   0.000   0.000   0.000   0.000
  0.000   0.000   0.000   0.000   1.000   0.000   0.000   0.000
  0.000   0.000   0.000   0.000   0.000   0.000   0.000   0.000
  0.000   0.000   0.000   0.000   0.000   0.000   0.000   0.000
  0.000   0.000   0.000   0.000   0.000   0.000   0.000   0.000


------------------------ aborting loop because EDIFF is reached ----------------------------------------


 


 total charge     
 
# of ion       s       p       d       f       tot
--------------------------------------------------
    1        1.259   2.449   0.000   0.000   3.708
    2        2.108   5.877   1.064   0.357   9.406
--------------------------------------------------
tot          3.367   8.326   1.064   0.357  13.113

 
    CHARGE:  cpu time    0.0782: real time    0.2233
    FORLOC:  cpu time    0.0007: real time    0.0007
    FORHF :  cpu time  402.8589: real time  402.9051
    FORNL :  cpu time    0.1323: real time    0.1323
    FORCOR:  cpu time    0.2161: real time    0.2164
    FORHAR:  cpu time    0.0027: real time    0.0027
    OFIELD:  cpu time    0.0000: real time    0.0000

 VOLUME and BASIS-vectors are now :
 -----------------------------------------------------------------------------
  energy-cutoff  :      520.00
  volume of cell :       34.64
      direct lattice vectors                 reciprocal lattice vectors
     0.000000000  2.587426345  2.587426345    -0.193242216  0.193242216  0.193242216
     2.587426345  0.000000000  2.587426345     0.193242216 -0.193242216  0.193242216
     2.587426345  2.587426345  0.000000000     0.193242216  0.193242216 -0.193242216

  length of vectors
     3.659173429  3.659173429  3.659173429     0.334705336  0.334705336  0.334705336


 FORCES acting on ions
    electron-ion (+dipol)            ewald-force                    non-local-force                 convergence-correction
 -----------------------------------------------------------------------------------------------
   -.277E-05 0.261E-05 -.168E-05   0.124E-14 0.219E-14 0.452E-14   0.000E+00 0.000E+00 0.000E+00   0.115E-05 -.117E-05 0.687E-06
   -.584E-06 -.114E-05 -.964E-06   -.136E-14 -.235E-14 -.521E-14   0.000E+00 0.106E-21 0.000E+00   0.149E-06 0.549E-06 0.297E-06
 -----------------------------------------------------------------------------------------------
   -.335E-05 0.147E-05 -.264E-05   -.114E-15 -.159E-15 -.686E-15   0.000E+00 0.106E-21 0.000E+00   0.130E-05 -.621E-06 0.984E-06
 
 
 POSITION                                       TOTAL-FORCE (eV/Angst)
 -----------------------------------------------------------------------------------
      2.58743      2.58743      2.58743        -0.000000      0.000000      0.000000
      0.00000      0.00000      0.00000         0.000000      0.000000      0.000000
 -----------------------------------------------------------------------------------
    total drift:                               -0.000002      0.000001     -0.000002


--------------------------------------------------------------------------------------------------------



  FREE ENERGIE OF THE ION-ELECTRON SYSTEM (eV)
  ---------------------------------------------------
  free  energy   TOTEN  =       -22.59531258 eV

  energy  without entropy=      -22.59333555  energy(sigma->0) =      -22.59432407
 


--------------------------------------------------------------------------------------------------------


    POTLOK:  cpu time    0.2115: real time    0.2118


--------------------------------------------------------------------------------------------------------


     LOOP+:  cpu time14201.5614: real time14205.3670
    4ORBIT:  cpu time    0.0000: real time    0.0000
 


 total charge     
 
# of ion       s       p       d       f       tot
--------------------------------------------------
    1        1.259   2.449   0.000   0.000   3.708
    2        2.108   5.877   1.064   0.357   9.406
--------------------------------------------------
tot          3.367   8.326   1.064   0.357  13.113

 

 total amount of memory used by VASP MPI-rank0    56249. kBytes
=======================================================================

   base      :      30000. kBytes
   nonl-proj :      12690. kBytes
   fftplans  :        658. kBytes
   grid      :        307. kBytes
   one-center:         49. kBytes
   HF        :         73. kBytes
   nonlr-proj:        958. kBytes
   wavefun   :      11514. kBytes
 
  
  
 General timing and accounting informations for this job:
 ========================================================
  
                  Total CPU time used (sec):    14261.086
                            User time (sec):    14257.815
                          System time (sec):        3.272
                         Elapsed time (sec):    14267.234
  
                   Maximum memory used (kb):      273576.
                   Average memory used (kb):           0.
  
                          Minor page faults:       565844
                          Major page faults:         2884
                 Voluntary context switches:         4413
